! TOUCHSTONE file generated by CST MICROWAVE STUDIO
! Date and time: Fri Mar 13 13:50:08 2026
! Project name: MS_SWL_ground_strip.cst
! Parameters = {H=1.27; L=60; Ls=1.2; T=0.035; W=4; Wgnd=40; dx=-2.4; p=2.4; rep=2}
! Header version: 2018
! Port assignment regex: !\s*Touchstone port\s*([0-9]+)\s*=\s*(CST MWS port|CST DS port)\s*([0-9]+|Zmin|Zmax)\s*\(\"(.*)\"\)(\s*mode\s*([0-9]+))?.*
! Touchstone port assignment:
! Touchstone port 1 = CST MWS port 1 ("")
! Touchstone port 2 = CST MWS port 2 ("")
! S-Parameters are not renormalized. Unphysical impedance of 0 will be written to the file.
# GHz S RI R 0
15                     0.4713414      0.09986401        -0.146873     -0.04032352                0               0                0               0
15.015                 0.4758841      0.08108011       -0.1488062     -0.03154626                0               0                0               0
15.03                  0.4796678      0.06233313       -0.1502019     -0.02270024                0               0                0               0
15.045                  0.482712      0.04364105         -0.15106     -0.01382065                0               0                0               0
15.06                  0.4850338      0.02501963        -0.151383    -0.004942293                0               0                0               0
15.075                 0.4866486     0.006483064       -0.1511763     0.003900551                0               0                0               0
15.09                  0.4875692      -0.0119556       -0.1504478      0.01267447                0               0                0               0
15.105                 0.4878068     -0.03028386       -0.1492079      0.02134704                0               0                0               0
15.12                  0.4873699     -0.04848927       -0.1474693       0.0298872                0               0                0               0
15.135                 0.4862655     -0.06655895        -0.145247      0.03826555                0               0                0               0
15.15                  0.4844985     -0.08447918        -0.142558      0.04645444                0               0                0               0
15.165                  0.482073       -0.102235        -0.139421      0.05442817                0               0                0               0
15.18                  0.4789917        -0.11981       -0.1358563      0.06216318                0               0                0               0
15.195                  0.475257       -0.137186       -0.1318851      0.06963824                0               0                0               0
15.21                  0.4708711      -0.1543429       -0.1275301      0.07683431                0               0                0               0
15.225                 0.4658365      -0.1712587       -0.1228141       0.0837348                0               0                0               0
15.24                  0.4601566      -0.1879095       -0.1177605      0.09032548                0               0                0               0
15.255                 0.4538362      -0.2042695       -0.1123928      0.09659432                0               0                0               0
15.27                  0.4468815      -0.2203115       -0.1067341       0.1025316                0               0                0               0
15.285                 0.4393009      -0.2360067        -0.100807       0.1081296                0               0                0               0
15.3                   0.4311053      -0.2513255      -0.09463362       0.1133825                0               0                0               0
15.315                  0.422308      -0.2662373      -0.08823479       0.1182863                0               0                0               0
15.33                  0.4129253      -0.2807115       -0.0816306       0.1228382                0               0                0               0
15.345                 0.4029765      -0.2947177      -0.07483967       0.1270369                0               0                0               0
15.36                   0.392484      -0.3082261      -0.06787926       0.1308819                0               0                0               0
15.375                 0.3814729       -0.321208      -0.06076539       0.1343735                0               0                0               0
15.39                  0.3699714      -0.3336361      -0.05351264       0.1375123                0               0                0               0
15.405                 0.3580105      -0.3454855      -0.04613422        0.140299                0               0                0               0
15.42                  0.3456232      -0.3567334      -0.03864211       0.1427343                0               0                0               0
15.435                 0.3328452      -0.3673597      -0.03104712       0.1448185                0               0                0               0
15.45                  0.3197136      -0.3773477      -0.02335916       0.1465513                0               0                0               0
15.465                 0.3062669      -0.3866837      -0.01558731       0.1479315                0               0                0               0
15.48                  0.2925445      -0.3953575     -0.007740145       0.1489573                0               0                0               0
15.495                 0.2785861      -0.4033626     0.0001741093       0.1496254                0               0                0               0
15.51                  0.2644318      -0.4106958      0.008147265       0.1499318                0               0                0               0
15.525                 0.2501204      -0.4173577       0.01617079       0.1498712                0               0                0               0
15.54                  0.2356905      -0.4233519       0.02423572       0.1494372                0               0                0               0
15.555                 0.2211788      -0.4286855       0.03233229       0.1486222                0               0                0               0
15.57                  0.2066203      -0.4333682       0.04044955       0.1474179                0               0                0               0
15.585                  0.192048      -0.4374124       0.04857546        0.145815                0               0                0               0
15.6                   0.1774921      -0.4408329       0.05669613       0.1438038                0               0                0               0
15.615                 0.1629809      -0.4436455       0.06479618       0.1413741                0               0                0               0
15.63                  0.1485392      -0.4458683       0.07285818       0.1385155                0               0                0               0
15.645                 0.1341896      -0.4475195       0.08086275       0.1352181                0               0                0               0
15.66                  0.1199511      -0.4486181       0.08878828        0.131472                0               0                0               0
15.675                 0.1058403      -0.4491832       0.09661112       0.1272687                0               0                0               0
15.69                 0.09187203      -0.4492328        0.1043054       0.1226004                0               0                0               0
15.705                0.07805728      -0.4487849        0.1118432       0.1174609                0               0                0               0
15.72                 0.06440605      -0.4478557        0.1191945       0.1118459                0               0                0               0
15.735                 0.0509266      -0.4464603        0.1263276       0.1057531                0               0                0               0
15.75                 0.03762479      -0.4446119        0.1332091      0.09918287                0               0                0               0
15.765                0.02450692       -0.442322        0.1398041      0.09213794                0               0                0               0
15.78                 0.01157763      -0.4396002        0.1460767       0.0846242                0               0                0               0
15.795              -0.001157893      -0.4364541        0.1519901      0.07665064                0               0                0               0
15.81                -0.01369433      -0.4328896        0.1575069      0.06822957                0               0                0               0
15.825               -0.02602595      -0.4289108        0.1625898      0.05937678                0               0                0               0
15.84                -0.03814522      -0.4245203        0.1672015      0.05011157                0               0                0               0
15.855                -0.0500436      -0.4197197        0.1713054      0.04045682                0               0                0               0
15.87                -0.06171124      -0.4145096        0.1748658      0.03043902                0               0                0               0
15.885               -0.07313509      -0.4088903        0.1778485      0.02008816                0               0                0               0
15.9                 -0.08430167      -0.4028618         0.180221     0.009437658                0               0                0               0
15.915               -0.09519392      -0.3964247        0.1819529    -0.001475765                0               0                0               0
15.93                 -0.1057935      -0.3895806        0.1830162     -0.01261228                0               0                0               0
15.945                -0.1160792      -0.3823322        0.1833858     -0.02392917                0               0                0               0
15.96                 -0.1260288      -0.3746841        0.1830396     -0.03538106                0               0                0               0
15.975                -0.1356178      -0.3666431        0.1819588      -0.0469202                0               0                0               0
15.99                 -0.1448206      -0.3582187        0.1801283     -0.05849683                0               0                0               0
16.005                  -0.15361      -0.3494233        0.1775366     -0.07005932                0               0                0               0
16.02                 -0.1619592      -0.3402724        0.1741762     -0.08155468                0               0                0               0
16.035                 -0.169841      -0.3307849        0.1700438     -0.09292898                0               0                0               0
16.05                  -0.177228      -0.3209836        0.1651398      -0.1041275                0               0                0               0
16.065                -0.1840946      -0.3108945        0.1594694       -0.115095                0               0                0               0
16.08                 -0.1904164      -0.3005475        0.1530415      -0.1257767                0               0                0               0
16.095                -0.1961712      -0.2899757        0.1458694      -0.1361176                0               0                0               0
16.11                 -0.2013395      -0.2792155        0.1379705      -0.1460637                0               0                0               0
16.125                -0.2059046      -0.2683063        0.1293664       -0.155562                0               0                0               0
16.14                  -0.209854      -0.2572899        0.1200824      -0.1645609                0               0                0               0
16.155                -0.2131788      -0.2462105        0.1101478      -0.1730101                0               0                0               0
16.17                 -0.2158747      -0.2351135        0.0995958      -0.1808615                0               0                0               0
16.185                -0.2179417      -0.2240458       0.08846281       -0.188069                0               0                0               0
16.2                  -0.2193853      -0.2130542       0.07678885      -0.1945889                0               0                0               0
16.215                -0.2202153      -0.2021858       0.06461702      -0.2003803                0               0                0               0
16.23                 -0.2204469      -0.1914865       0.05199353      -0.2054048                0               0                0               0
16.245                -0.2201001      -0.1810007       0.03896731      -0.2096272                0               0                0               0
16.26                 -0.2191993      -0.1707709       0.02558996      -0.2130155                0               0                0               0
16.275                -0.2177734      -0.1608366       0.01191548      -0.2155409                0               0                0               0
16.29                 -0.2158559      -0.1512338     -0.002000053      -0.2171784                0               0                0               0
16.305                -0.2134832       -0.141995      -0.01609845      -0.2179063                0               0                0               0
16.32                  -0.210695      -0.1331482       -0.0303198      -0.2177067                0               0                0               0
16.335                -0.2075339      -0.1247165       -0.0446028      -0.2165658                0               0                0               0
16.35                 -0.2040439      -0.1167184      -0.05888465      -0.2144736                0               0                0               0
16.365                -0.2002705      -0.1091669      -0.07310154      -0.2114243                0               0                0               0
16.38                 -0.1962595      -0.1020697      -0.08718883      -0.2074161                0               0                0               0
16.395                -0.1920569     -0.09542916       -0.1010814      -0.2024518                0               0                0               0
16.41                 -0.1877075     -0.08924252       -0.1147135      -0.1965382                0               0                0               0
16.425                -0.1832547     -0.08350188       -0.1280198      -0.1896868                0               0                0               0
16.44                 -0.1787397     -0.07819446       -0.1409346      -0.1819134                0               0                0               0
16.455                -0.1742009     -0.07330317       -0.1533931      -0.1732384                0               0                0               0
16.47                 -0.1696732     -0.06880698       -0.1653312      -0.1636868                0               0                0               0
16.485                 -0.165188     -0.06468134       -0.1766858      -0.1532883                0               0                0               0
16.5                  -0.1607722     -0.06089888       -0.1873952       -0.142077                0               0                0               0
16.515                -0.1564484     -0.05742991       -0.1973997      -0.1300917                0               0                0               0
16.53                 -0.1522344     -0.05424328       -0.2066415      -0.1173754                0               0                0               0
16.545                -0.1481431     -0.05130686       -0.2150652      -0.1039761                0               0                0               0
16.56                 -0.1441826     -0.04858833       -0.2226183      -0.0899458                0               0                0               0
16.575                -0.1403562     -0.04605595       -0.2292515     -0.07534082                0               0                0               0
16.59                 -0.1366627     -0.04367891       -0.2349191     -0.06022151                0               0                0               0
16.605                -0.1330964     -0.04142841       -0.2395791     -0.04465209                0               0                0               0
16.62                 -0.1296478     -0.03927785       -0.2431938     -0.02870034                0               0                0               0
16.635                -0.1263038     -0.03720351       -0.2457304     -0.01243758                0               0                0               0
16.65                 -0.1230482     -0.03518509       -0.2471606     0.004062095                0               0                0               0
16.665                -0.1198623     -0.03320582       -0.2474614      0.02072158                0               0                0               0
16.68                 -0.1167255     -0.03125301       -0.2466157      0.03746164                0               0                0               0
16.695                -0.1136161     -0.02931806       -0.2446116      0.05420125                0               0                0               0
16.71                 -0.1105116     -0.02739662       -0.2414436      0.07085758                0               0                0               0
16.725                -0.1073895      -0.0254887       -0.2371121       0.0873471                0               0                0               0
16.74                 -0.1042283     -0.02359838       -0.2316241       0.1035856                0               0                0               0
16.755                -0.1010073     -0.02173378       -0.2249928       0.1194889                0               0                0               0
16.77                -0.09770799     -0.01990667       -0.2172379       0.1349735                0               0                0               0
16.785                -0.0943142     -0.01813231       -0.2083856       0.1499569                0               0                0               0
16.8                 -0.09081253     -0.01642886       -0.1984684       0.1643582                0               0                0               0
16.815               -0.08719296     -0.01481697       -0.1875253       0.1780987                0               0                0               0
16.83                -0.08344896     -0.01331927       -0.1756013       0.1911024                0               0                0               0
16.845               -0.07957791     -0.01195983       -0.1627476       0.2032964                0               0                0               0
16.86                -0.07558117     -0.01076341       -0.1490205       0.2146119                0               0                0               0
16.875               -0.07146418    -0.009755081       -0.1344825       0.2249839                0               0                0               0
16.89                -0.06723644    -0.008959494       -0.1192006       0.2343524                0               0                0               0
16.905               -0.06291141    -0.008400266       -0.1032465       0.2426623                0               0                0               0
16.92                -0.05850632    -0.008099526      -0.08669634        0.249864                0               0                0               0
16.935               -0.05404196    -0.008077272      -0.06962974       0.2559139                0               0                0               0
16.95                -0.04954226    -0.008350961      -0.05213001       0.2607741                0               0                0               0
16.965               -0.04503399    -0.008935015      -0.03428252       0.2644136                0               0                0               0
16.98                -0.04054623     -0.00984055      -0.01617574       0.2668073                0               0                0               0
16.995               -0.03610995     -0.01107498      0.002101274       0.2679375                0               0                0               0
17.01                -0.03175747     -0.01264187       0.02045714       0.2677928                0               0                0               0
17.025               -0.02752186     -0.01454076       0.03880102       0.2663687                0               0                0               0
17.04                -0.02343649     -0.01676709       0.05704149       0.2636676                0               0                0               0
17.055               -0.01953442     -0.01931224       0.07508738       0.2596985                0               0                0               0
17.07                -0.01584784     -0.02216361       0.09284942       0.2544773                0               0                0               0
17.085               -0.01240764     -0.02530477        0.1102393       0.2480262                0               0                0               0
17.1                -0.009242831      -0.0287157        0.1271708       0.2403736                0               0                0               0
17.115              -0.006380211     -0.03237309        0.1435604       0.2315542                0               0                0               0
17.13               -0.003843923     -0.03625063        0.1593274       0.2216085                0               0                0               0
17.145              -0.001655112     -0.04031946        0.1743945       0.2105822                0               0                0               0
17.16               0.0001682687     -0.04454857        0.1886879       0.1985267                0               0                0               0
17.175               0.001611745     -0.04890521         0.202138       0.1854978                0               0                0               0
17.19                0.002664428      -0.0533554        0.2146793       0.1715561                0               0                0               0
17.205               0.003318998     -0.05786435         0.226251       0.1567663                0               0                0               0
17.22                0.003571876     -0.06239696        0.2367971       0.1411968                0               0                0               0
17.235               0.003423041     -0.06691825        0.2462665       0.1249196                0               0                0               0
17.25                0.002875901     -0.07139377        0.2546132       0.1080095                0               0                0               0
17.265               0.001937184     -0.07578999        0.2617963      0.09054416                0               0                0               0
17.28               0.0006167112     -0.08007468        0.2677805      0.07260354                0               0                0               0
17.295              -0.001072904     -0.08421721        0.2725358      0.05426946                0               0                0               0
17.31               -0.003116513     -0.08818876        0.2760376      0.03562542                0               0                0               0
17.325              -0.005496775     -0.09196262         0.278267      0.01675614                0               0                0               0
17.34                -0.00819442     -0.09551426        0.2792104    -0.002252711                0               0                0               0
17.355               -0.01118871      -0.0988215        0.2788598     -0.02131485                0               0                0               0
17.37                -0.01445771      -0.1018645        0.2772127     -0.04034373                0               0                0               0
17.385                -0.0179785      -0.1046257        0.2742723     -0.05925276                0               0                0               0
17.4                 -0.02172769        -0.10709        0.2700468     -0.07795571                0               0                0               0
17.415               -0.02568162      -0.1092444        0.2645504      -0.0963669                0               0                0               0
17.43                -0.02981652      -0.1110781        0.2578022      -0.1144016                0               0                0               0
17.445               -0.03410885       -0.112582        0.2498271      -0.1319761                0               0                0               0
17.46                -0.03853534      -0.1137489        0.2406548      -0.1490084                0               0                0               0
17.475               -0.04307339       -0.114573        0.2303206      -0.1654181                0               0                0               0
17.49                -0.04770078        -0.11505        0.2188648      -0.1811266                0               0                0               0
17.505               -0.05239603      -0.1151764         0.206333      -0.1960582                0               0                0               0
17.52                -0.05713821      -0.1149497        0.1927754      -0.2101392                0               0                0               0
17.535               -0.06190703      -0.1143681        0.1782475      -0.2232993                0               0                0               0
17.55                -0.06668264      -0.1134302        0.1628094      -0.2354711                0               0                0               0
17.565               -0.07144556      -0.1121351        0.1465259      -0.2465911                0               0                0               0
17.58                 -0.0761767       -0.110482        0.1294662      -0.2565993                0               0                0               0
17.595               -0.08085676      -0.1084701         0.111704      -0.2654401                0               0                0               0
17.61                -0.08546656      -0.1060988       0.09331714      -0.2730625                0               0                0               0
17.625               -0.08998652      -0.1033676       0.07438713      -0.2794202                0               0                0               0
17.64                -0.09439656      -0.1002762       0.05499951      -0.2844721                0               0                0               0
17.655               -0.09867585     -0.09682418       0.03524278      -0.2881826                0               0                0               0
17.67                 -0.1028028      -0.0930118       0.01520883      -0.2905219                0               0                0               0
17.685                -0.1067547     -0.08883965     -0.005007833      -0.2914665                0               0                0               0
17.7                  -0.1105077     -0.08430896      -0.02531037      -0.2909989                0               0                0               0
17.715                -0.1140368     -0.07942198      -0.04560009      -0.2891086                0               0                0               0
17.73                 -0.1173154     -0.07418211      -0.06577674      -0.2857918                0               0                0               0
17.745                -0.1203159     -0.06859431      -0.08573911      -0.2810519                0               0                0               0
17.76                 -0.1230091     -0.06266522       -0.1053855      -0.2748995                0               0                0               0
17.775                -0.1253649     -0.05640363       -0.1246141      -0.2673525                0               0                0               0
17.79                 -0.1273517     -0.04982069        -0.143324      -0.2584364                0               0                0               0
17.805                -0.1289374     -0.04293026       -0.1614153      -0.2481846                0               0                0               0
17.82                  -0.130089     -0.03574925       -0.1787898      -0.2366375                0               0                0               0
17.835                -0.1307731     -0.02829768       -0.1953517      -0.2238432                0               0                0               0
17.85                 -0.1309565      -0.0205992       -0.2110085      -0.2098573                0               0                0               0
17.865                 -0.130606     -0.01268104       -0.2256706      -0.1947429                0               0                0               0
17.88                 -0.1296894    -0.004574263       -0.2392534      -0.1785696                0               0                0               0
17.895                -0.1281754     0.003686124       -0.2516767      -0.1614143                0               0                0               0
17.91                 -0.1260347      0.01206113       -0.2628657      -0.1433598                0               0                0               0
17.925                -0.1232398      0.02050789       -0.2727518      -0.1244956                0               0                0               0
17.94                 -0.1197662       0.0289796       -0.2812726      -0.1049165                0               0                0               0
17.955                -0.1155922      0.03742571       -0.2883728     -0.08472254                0               0                0               0