! TOUCHSTONE file generated by CST MICROWAVE STUDIO
! Date and time: Fri Mar 13 13:50:25 2026
! Project name: MS_SWL_Suppression.cst
! Parameters = {H=1.27; L=60; Lb=2; Lc1=2; T=0.035; Wgnd=40; dx=0; p=4}
! Header version: 2018
! Port assignment regex: !\s*Touchstone port\s*([0-9]+)\s*=\s*(CST MWS port|CST DS port)\s*([0-9]+|Zmin|Zmax)\s*\(\"(.*)\"\)(\s*mode\s*([0-9]+))?.*
! Touchstone port assignment:
! Touchstone port 1 = CST MWS port 1 ("")
! Touchstone port 2 = CST MWS port 2 ("")
! S-Parameters are not renormalized. Unphysical impedance of 0 will be written to the file.
# GHz S RI R 0
15                     0.5377932       0.1083369       -0.1087741      0.03011539                0               0                0               0
15.015                 0.5433703      0.08537246       -0.1062629      0.03660063                0               0                0               0
15.03                   0.547886      0.06235597       -0.1033752      0.04287155                0               0                0               0
15.045                 0.5513532      0.03933367       -0.1001294       0.0489081                0               0                0               0
15.06                  0.5537865      0.01634982      -0.09654503       0.0546919                0               0                0               0
15.075                 0.5552019    -0.006553146      -0.09264197      0.06020602                0               0                0               0
15.09                  0.5556166     -0.02933469      -0.08844074      0.06543516                0               0                0               0
15.105                 0.5550482     -0.05195602      -0.08396235      0.07036554                0               0                0               0
15.12                  0.5535157     -0.07438007      -0.07922819      0.07498482                0               0                0               0
15.135                 0.5510386     -0.09657134      -0.07425968      0.07928228                0               0                0               0
15.15                  0.5476366      -0.1184958      -0.06907868      0.08324847                0               0                0               0
15.165                 0.5433303      -0.1401209      -0.06370697      0.08687539                0               0                0               0
15.18                  0.5381401      -0.1614152      -0.05816633      0.09015646                0               0                0               0
15.195                 0.5320872      -0.1823483      -0.05247846      0.09308634                0               0                0               0
15.21                  0.5251927      -0.2028912      -0.04666496        0.095661                0               0                0               0
15.225                 0.5174784      -0.2230153       -0.0407472      0.09787757                0               0                0               0
15.24                  0.5089659      -0.2426933      -0.03474636      0.09973443                0               0                0               0
15.255                 0.4996774      -0.2618982      -0.02868325        0.101231                0               0                0               0
15.27                  0.4896355      -0.2806039      -0.02257834       0.1023678                0               0                0               0
15.285                 0.4788629      -0.2987849      -0.01645169       0.1031465                0               0                0               0
15.3                   0.4673832      -0.3164161        -0.010323       0.1035695                0               0                0               0
15.315                 0.4552199      -0.3334729     -0.004211439       0.1036404                0               0                0               0
15.33                  0.4423976      -0.3499314      0.001864221       0.1033633                0               0                0               0
15.345                 0.4289416      -0.3657682      0.007885813       0.1027436                0               0                0               0
15.36                  0.4148772      -0.3809601       0.01383564       0.1017872                0               0                0               0
15.375                 0.4002312      -0.3954849       0.01969659       0.1005007                0               0                0               0
15.39                   0.385031      -0.4093206       0.02545207      0.09889147                0               0                0               0
15.405                 0.3693046      -0.4224462       0.03108611      0.09696754                0               0                0               0
15.42                   0.353081      -0.4348411       0.03658324       0.0947375                0               0                0               0
15.435                 0.3363903      -0.4464855        0.0419286      0.09221051                0               0                0               0
15.45                   0.319263      -0.4573605       0.04710792      0.08939627                0               0                0               0
15.465                 0.3017313      -0.4674482       0.05210746       0.0863049                0               0                0               0
15.48                  0.2838277      -0.4767312       0.05691405      0.08294708                0               0                0               0
15.495                 0.2655854      -0.4851935       0.06151509      0.07933384                0               0                0               0
15.51                  0.2470394      -0.4928199       0.06589845      0.07547665                0               0                0               0
15.525                 0.2282245      -0.4995967       0.07005259       0.0713874                0               0                0               0
15.54                  0.2091778      -0.5055106       0.07396647      0.06707828                0               0                0               0
15.555                 0.1899355      -0.5105504       0.07762953      0.06256194                0               0                0               0
15.57                  0.1705358      -0.5147057       0.08103172      0.05785135                0               0                0               0
15.585                 0.1510175      -0.5179675       0.08416346      0.05295984                0               0                0               0
15.6                   0.1314199       -0.520328       0.08701564      0.04790115                0               0                0               0
15.615                 0.1117836      -0.5217811       0.08957967      0.04268939                0               0                0               0
15.63                 0.09214912      -0.5223221       0.09184739      0.03733904                0               0                0               0
15.645                0.07255889      -0.5219477       0.09381117      0.03186505                0               0                0               0
15.66                 0.05305505      -0.5206564       0.09546386      0.02628274                0               0                0               0
15.675                0.03368101      -0.5184482       0.09679885      0.02060791                0               0                0               0
15.69                 0.01448037      -0.5153251       0.09781007      0.01485682                0               0                0               0
15.705              -0.004501352      -0.5112908       0.09849208     0.009046218                0               0                0               0
15.72                 -0.0232197       -0.506351       0.09884006      0.00319333                0               0                0               0
15.735               -0.04162844      -0.5005136       0.09884983    -0.002684099                0               0                0               0
15.75                -0.05968031      -0.4937886       0.09851804    -0.008567816                0               0                0               0
15.765               -0.07732905      -0.4861884       0.09784207     -0.01443906                0               0                0               0
15.78                -0.09452642      -0.4777281       0.09682024     -0.02027856                0               0                0               0
15.795                -0.1112249      -0.4684254       0.09545176     -0.02606658                0               0                0               0
15.81                 -0.1273766      -0.4583006       0.09373694     -0.03178292                0               0                0               0
15.825                -0.1429326      -0.4473776       0.09167714     -0.03740696                0               0                0               0
15.84                 -0.1578455      -0.4356827       0.08927497     -0.04291772                0               0                0               0
15.855                -0.1720671      -0.4232465        0.0865343     -0.04829391                0               0                0               0
15.87                 -0.1855503      -0.4101022       0.08346029     -0.05351406                0               0                0               0
15.885                 -0.198249      -0.3962872       0.08005966     -0.05855646                0               0                0               0
15.9                  -0.2101179      -0.3818424       0.07634056     -0.06339944                0               0                0               0
15.915                -0.2211135      -0.3668125        0.0723127     -0.06802142                0               0                0               0
15.93                 -0.2311939      -0.3512461       0.06798742     -0.07240099                0               0                0               0
15.945                -0.2403196      -0.3351957        0.0633778     -0.07651703                0               0                0               0
15.96                 -0.2484538      -0.3187178       0.05849851     -0.08034901                0               0                0               0
15.975                -0.2555627      -0.3018723       0.05336598       -0.083877                0               0                0               0
15.99                 -0.2616161      -0.2847231       0.04799831     -0.08708187                0               0                0               0
16.005                -0.2665877      -0.2673374       0.04241539     -0.08994544                0               0                0               0
16.02                 -0.2704557      -0.2497855       0.03663869     -0.09245071                0               0                0               0
16.035                -0.2732032      -0.2321409        0.0306913       -0.094582                0               0                0               0
16.05                 -0.2748184      -0.2144796       0.02459773     -0.09632515                0               0                0               0
16.065                 -0.275295      -0.1968798       0.01838406      -0.0976676                0               0                0               0
16.08                 -0.2746328      -0.1794211       0.01207761     -0.09859867                0               0                0               0
16.095                -0.2728383      -0.1621847        0.0057069     -0.09910962                0               0                0               0
16.11                 -0.2699236      -0.1452525    -0.0006986524     -0.09919384                0               0                0               0
16.125                -0.2659085      -0.1287061     -0.007108635     -0.09884697                0               0                0               0
16.14                 -0.2608189      -0.1126266      -0.01349194     -0.09806703                0               0                0               0
16.155                -0.2546882     -0.09709398       -0.0198174     -0.09685443                0               0                0               0
16.17                 -0.2475564     -0.08218636      -0.02605306     -0.09521219                0               0                0               0
16.185                -0.2394704     -0.06797904      -0.03216747     -0.09314585                0               0                0               0
16.2                  -0.2304838     -0.05454389      -0.03812908     -0.09066356                0               0                0               0
16.215                -0.2206568     -0.04194904      -0.04390706     -0.08777612                0               0                0               0
16.23                 -0.2100555     -0.03025773      -0.04947111     -0.08449689                0               0                0               0
16.245                -0.1987519     -0.01952807      -0.05479206     -0.08084178                0               0                0               0
16.26                 -0.1868232    -0.009811997      -0.05984193     -0.07682914                0               0                0               0
16.275                -0.1743512     -0.00115515      -0.06459416     -0.07247972                0               0                0               0
16.29                  -0.161422     0.006403898      -0.06902392     -0.06781648                0               0                0               0
16.305                -0.1481249      0.01283398      -0.07310821      -0.0628645                0               0                0               0
16.32                 -0.1345523      0.01811165      -0.07682624     -0.05765073                0               0                0               0
16.335                -0.1207982      0.02222155      -0.08015943     -0.05220387                0               0                0               0
16.35                 -0.1069579      0.02515655      -0.08309167      -0.0465541                0               0                0               0
16.365               -0.09312706      0.02691788      -0.08560941     -0.04073292                0               0                0               0
16.38                -0.07940091      0.02751513      -0.08770183      -0.0347728                0               0                0               0
16.395               -0.06587338      0.02696611      -0.08936091     -0.02870701                0               0                0               0
16.41                -0.05263635      0.02529688      -0.09058144     -0.02256932                0               0                0               0
16.425               -0.03977879      0.02254128      -0.09136115     -0.01639371                0               0                0               0
16.44                 -0.0273861      0.01874073      -0.09170064     -0.01021412                0               0                0               0
16.455               -0.01553936      0.01394375      -0.09160335    -0.004064164                0               0                0               0
16.47               -0.004314663     0.008205501      -0.09107558     0.002023075                0               0                0               0
16.485               0.006217418     0.001587215      -0.09012634     0.008015424                0               0                0               0
16.5                   0.0159924    -0.005844415      -0.08876726      0.01388181                0               0                0               0
16.515                0.02495231     -0.01401789      -0.08701251      0.01959242                0               0                0               0
16.53                 0.03304605      -0.0228576      -0.08487853      0.02511913                0               0                0               0
16.545                 0.0402297     -0.03228457      -0.08238398      0.03043544                0               0                0               0
16.56                 0.04646666     -0.04221714      -0.07954949      0.03551684                0               0                0               0
16.575                0.05172785     -0.05257181      -0.07639742      0.04034097                0               0                0               0
16.59                 0.05599165     -0.06326389      -0.07295166      0.04488761                0               0                0               0
16.605                0.05924388     -0.07420827      -0.06923738      0.04913892                0               0                0               0
16.62                  0.0614777      -0.0853201      -0.06528086      0.05307949                0               0                0               0
16.635                0.06269339     -0.09651548      -0.06110916      0.05669635                0               0                0               0
16.65                 0.06289804      -0.1077121      -0.05674982      0.05997906                0               0                0               0
16.665                0.06210526      -0.1188296      -0.05223077      0.06291965                0               0                0               0
16.68                 0.06033482      -0.1297906         -0.04758      0.06551261                0               0                0               0
16.695                0.05761221      -0.1405206      -0.04282532      0.06775486                0               0                0               0
16.71                 0.05396819      -0.1509486      -0.03799408      0.06964573                0               0                0               0
16.725                0.04943836      -0.1610077      -0.03311316      0.07118667                0               0                0               0
16.74                 0.04406259      -0.1706347      -0.02820857      0.07238135                0               0                0               0
16.755                0.03788448      -0.1797711      -0.02330534      0.07323542                0               0                0               0
16.77                 0.03095122      -0.1883627       -0.0184274      0.07375637                0               0                0               0
16.785                0.02331255      -0.1963599       -0.0135974      0.07395341                0               0                0               0
16.8                  0.01502084      -0.2037176     -0.008836608      0.07383721                0               0                0               0
16.815               0.006130328      -0.2103953      -0.00416488      0.07341979                0               0                0               0
16.83               -0.003303223      -0.2163571     0.0003996221      0.07271437                0               0                0               0
16.845               -0.01322279      -0.2215714      0.004840195      0.07173509                0               0                0               0
16.86                -0.02357052      -0.2260109      0.009141834      0.07049692                0               0                0               0
16.875               -0.03428787      -0.2296525       0.01329107      0.06901541                0               0                0               0
16.89                -0.04531626       -0.232477       0.01727623      0.06730654                0               0                0               0
16.905               -0.05659668      -0.2344691       0.02108706      0.06538657                0               0                0               0
16.92                -0.06807032      -0.2356171       0.02471496      0.06327188                0               0                0               0
16.935               -0.07967863      -0.2359128       0.02815273      0.06097883                0               0                0               0
16.95                -0.09136319      -0.2353514       0.03139467      0.05852357                0               0                0               0
16.965                 -0.103066      -0.2339311       0.03443633      0.05592204                0               0                0               0
16.98                 -0.1147297      -0.2316537       0.03727449      0.05318975                0               0                0               0
16.995                -0.1262972      -0.2285235       0.03990709      0.05034177                0               0                0               0
17.01                  -0.137712      -0.2245482       0.04233302      0.04739266                0               0                0               0
17.025                 -0.148918      -0.2197381       0.04455217      0.04435636                0               0                0               0
17.04                 -0.1598599      -0.2141065       0.04656514       0.0412462                0               0                0               0
17.055                -0.1704826      -0.2076701       0.04837329      0.03807488                0               0                0               0
17.07                 -0.1807323      -0.2004479       0.04997855      0.03485441                0               0                0               0
17.085                -0.1905554      -0.1924626       0.05138334       0.0315962                0               0                0               0
17.1                  -0.1998994      -0.1837397       0.05259048      0.02831098                0               0                0               0
17.115                -0.2087125      -0.1743079       0.05360315      0.02500891                0               0                0               0
17.13                 -0.2169447      -0.1641995       0.05442473      0.02169954                0               0                0               0
17.145                -0.2245463      -0.1534499       0.05505882       0.0183919                0               0                0               0
17.16                 -0.2314701       -0.142098       0.05550915      0.01509454                0               0                0               0
17.175                -0.2376702      -0.1301866       0.05577955      0.01181557                0               0                0               0
17.19                 -0.2431029      -0.1177616        0.0558739     0.008562699                0               0                0               0
17.205                -0.2477269      -0.1048727       0.05579614     0.005343314                0               0                0               0
17.22                 -0.2515038     -0.09157311       0.05555024     0.002164511                0               0                0               0
17.235                 -0.254398     -0.07791954        0.0551402   -0.0009668501                0               0                0               0
17.25                 -0.2563778     -0.06397196       0.05457005    -0.004044108                0               0                0               0
17.265                -0.2574152     -0.04979351        0.0538439    -0.007060758                0               0                0               0
17.28                 -0.2574862     -0.03545056       0.05296592     -0.01001042                0               0                0               0
17.295                 -0.256572     -0.02101184       0.05194039     -0.01288683                0               0                0               0
17.31                 -0.2546582     -0.00654871       0.05077173     -0.01568379                0               0                0               0
17.325                -0.2517361     0.007865613       0.04946451      -0.0183952                0               0                0               0
17.34                 -0.2478025       0.0221564        0.0480235     -0.02101503                0               0                0               0
17.355                -0.2428602      0.03624751       0.04645371     -0.02353733                0               0                0               0
17.37                  -0.236918      0.05006245       0.04476044     -0.02595626                0               0                0               0
17.385                 -0.229991      0.06352476       0.04294922      -0.0282661                0               0                0               0
17.4                  -0.2221008      0.07655834       0.04102594     -0.03046127                0               0                0               0
17.415                -0.2132753      0.08908829        0.0389968     -0.03253639                0               0                0               0
17.43                 -0.2035488       0.1010416       0.03686838      -0.0344863                0               0                0               0
17.445                -0.1929622       0.1123476       0.03464755     -0.03630609                0               0                0               0
17.46                 -0.1815621       0.1229386       0.03234161     -0.03799119                0               0                0               0
17.475                -0.1694014       0.1327505       0.02995813     -0.03953736                0               0                0               0
17.49                 -0.1565385       0.1417236       0.02750504     -0.04094076                0               0                0               0
17.505                 -0.143037       0.1498031       0.02499058     -0.04219802                0               0                0               0
17.52                 -0.1289651       0.1569393       0.02242323     -0.04330625                0               0                0               0
17.535                -0.1143958       0.1630882       0.01981176     -0.04426306                0               0                0               0
17.55                -0.09940521       0.1682126       0.01716508     -0.04506666                0               0                0               0
17.565               -0.08407314       0.1722812       0.01449226     -0.04571582                0               0                0               0
17.58                -0.06848132       0.1752701       0.01180247     -0.04620995                0               0                0               0
17.595               -0.05271373       0.1771624      0.009104897     -0.04654904                0               0                0               0
17.61                -0.03685532       0.1779483      0.006408712     -0.04673376                0               0                0               0
17.625               -0.02099139       0.1776254      0.003722991     -0.04676539                0               0                0               0
17.64               -0.005206918       0.1761989      0.001056683     -0.04664584                0               0                0               0
17.655                 0.0104141       0.1736808     -0.001581511     -0.04637764                0               0                0               0
17.67                 0.02578935       0.1700906     -0.004183091     -0.04596389                0               0                0               0
17.685                0.04083893       0.1654542     -0.006739953     -0.04540826                0               0                0               0
17.7                  0.05548595       0.1598045     -0.009244298     -0.04471495                0               0                0               0
17.715                0.06965709       0.1531803      -0.01168877      -0.0438886                0               0                0               0
17.73                 0.08328328       0.1456261      -0.01406648     -0.04293431                0               0                0               0
17.745                0.09629982       0.1371918      -0.01637096     -0.04185756                0               0                0               0
17.76                  0.1086473       0.1279318      -0.01859634     -0.04066411                0               0                0               0
17.775                 0.1202716        0.117905      -0.02073721     -0.03936004                0               0                0               0
17.79                  0.1311243       0.1071735      -0.02278871     -0.03795157                0               0                0               0
17.805                 0.1411629      0.09580277      -0.02474654     -0.03644511                0               0                0               0
17.82                  0.1503509      0.08386028      -0.02660693     -0.03484713                0               0                0               0
17.835                 0.1586579      0.07141541      -0.02836657     -0.03316415                0               0                0               0
17.85                  0.1660598      0.05853866      -0.03002274     -0.03140264                0               0                0               0
17.865                 0.1725384      0.04530109       -0.0315731     -0.02956903                0               0                0               0
17.88                  0.1780816      0.03177372       -0.0330158     -0.02766962                0               0                0               0
17.895                 0.1826831      0.01802703       -0.0343494     -0.02571056                0               0                0               0
17.91                   0.186342     0.004130463      -0.03557275     -0.02369783                0               0                0               0
17.925                 0.1890628    -0.009848038       -0.0366851      -0.0216372                0               0                0               0
17.94                  0.1908551     -0.02384243      -0.03768589     -0.01953422                0               0                0               0
17.955                  0.191733     -0.03778892      -0.03857485     -0.01739421                0               0                0               0