! TOUCHSTONE file generated by CST MICROWAVE STUDIO
! Date and time: Fri Mar 13 13:49:15 2026
! Project name: MS_SWL_uniplanar.cst
! Parameters = {H=1.27; L=60; W=4; Wgnd=40; rep_x=1; rep_y=19; s=2}
! Header version: 2018
! Port assignment regex: !\s*Touchstone port\s*([0-9]+)\s*=\s*(CST MWS port|CST DS port)\s*([0-9]+|Zmin|Zmax)\s*\(\"(.*)\"\)(\s*mode\s*([0-9]+))?.*
! Touchstone port assignment:
! Touchstone port 1 = CST MWS port 1 ("")
! Touchstone port 2 = CST MWS port 2 ("")
! S-Parameters are not renormalized. Unphysical impedance of 0 will be written to the file.
# GHz S RI R 0
15                     0.4777115       0.1149201       -0.1438203     -0.05427972                0               0                0               0
15.015                 0.4830814      0.09538373       -0.1463514     -0.04562806                0               0                0               0
15.03                  0.4875836      0.07576848       -0.1483677     -0.03693428                0               0                0               0
15.045                 0.4912013      0.05611711       -0.1498911     -0.02822141                0               0                0               0
15.06                  0.4939264      0.03648461       -0.1509388     -0.01950348                0               0                0               0
15.075                  0.495765      0.01693267       -0.1515206     -0.01078947                0               0                0               0
15.09                  0.4967396    -0.002477943       -0.1516373    -0.002088243                0               0                0               0
15.105                 0.4968866     -0.02169489       -0.1512833     0.006586618                0               0                0               0
15.12                  0.4962518     -0.04067997       -0.1504497      0.01521374                0               0                0               0
15.135                 0.4948823     -0.05941137       -0.1491295      0.02376323                0               0                0               0
15.15                  0.4928191     -0.07788214       -0.1473222      0.03219835                0               0                0               0
15.165                 0.4900913     -0.09609511       -0.1450367      0.04047917                0               0                0               0
15.18                  0.4867135      -0.1140557       -0.1422924      0.04856763                0               0                0               0
15.195                 0.4826869      -0.1317645       -0.1391172      0.05643199                0               0                0               0
15.21                  0.4780042      -0.1492111       -0.1355442      0.06405035                0               0                0               0
15.225                 0.4726559      -0.1663716       -0.1316068      0.07141171                0               0                0               0
15.24                  0.4666386       -0.183209       -0.1273334      0.07851449                0               0                0               0
15.255                   0.45996       -0.199678       -0.1227443       0.0853632                0               0                0               0
15.27                  0.4526427      -0.2157316       -0.1178504      0.09196363                0               0                0               0
15.285                 0.4447232      -0.2313279       -0.1126535      0.09831808                0               0                0               0
15.3                   0.4362479      -0.2464367         -0.10715       0.1044217                0               0                0               0
15.315                 0.4272671      -0.2610424       -0.1013353       0.1102606                0               0                0               0
15.33                  0.4178271       -0.275144      -0.09520829        0.115813                0               0                0               0
15.345                 0.4079648      -0.2887511       -0.0887752       0.1210514                0               0                0               0
15.36                   0.397704       -0.301878      -0.08205124       0.1259474                0               0                0               0
15.375                 0.3870555       -0.314537      -0.07506025       0.1304758                0               0                0               0
15.39                    0.37602      -0.3267317      -0.06783197       0.1346184                0               0                0               0
15.405                 0.3645942      -0.3384542      -0.06039824       0.1383658                0               0                0               0
15.42                  0.3527778      -0.3496843      -0.05278843       0.1417169                0               0                0               0
15.435                 0.3405789      -0.3603926      -0.04502598       0.1446769                0               0                0               0
15.45                  0.3280179      -0.3705464      -0.03712649       0.1472529                0               0                0               0
15.465                 0.3151284      -0.3801158      -0.02909802         0.14945                0               0                0               0
15.48                  0.3019535        -0.38908      -0.02094322       0.1512675                0               0                0               0
15.495                 0.2885411      -0.3974311      -0.01266339       0.1526971                0               0                0               0
15.51                  0.2749374      -0.4051744     -0.004262414        0.153723                0               0                0               0
15.525                 0.2611807      -0.4123265      0.004249409        0.154324                0               0                0               0
15.54                  0.2472974      -0.4189095        0.0128535        0.154477                0               0                0               0
15.555                 0.2333014      -0.4249453       0.02152273       0.1541615                0               0                0               0
15.57                  0.2191961      -0.4304493       0.03022345       0.1533629                0               0                0               0
15.585                 0.2049793      -0.4354265       0.03891892       0.1520747                0               0                0               0
15.6                   0.1906486      -0.4398706       0.04757331       0.1502991                0               0                0               0
15.615                 0.1762088      -0.4437652       0.05615523       0.1480446                0               0                0               0
15.63                   0.161674      -0.4470895       0.06463976       0.1453234                0               0                0               0
15.645                 0.1470697      -0.4498228       0.07300889       0.1421471                0               0                0               0
15.66                  0.1324315      -0.4519513       0.08124969       0.1385234                0               0                0               0
15.675                 0.1178002      -0.4534711       0.08935098       0.1344544                0               0                0               0
15.69                  0.1032158      -0.4543901       0.09729973       0.1299359                0               0                0               0
15.705                0.08871231      -0.4547261        0.1050776       0.1249595                0               0                0               0
15.72                 0.07431474      -0.4545022        0.1126586       0.1195161                0               0                0               0
15.735                0.06003578      -0.4537417        0.1200095       0.1135992                0               0                0               0
15.75                 0.04587931      -0.4524619        0.1270907       0.1072091                0               0                0               0
15.765                0.03184405      -0.4506705        0.1338606       0.1003551                0               0                0               0
15.78                  0.0179292      -0.4483639        0.1402788      0.09305553                0               0                0               0
15.795               0.004140748      -0.4455292        0.1463104      0.08533667                0               0                0               0
15.81               -0.009505083      -0.4421478        0.1519287      0.07722898                0               0                0               0
15.825               -0.02297904      -0.4382022         0.157115      0.06876325                0               0                0               0
15.84                -0.03624086      -0.4336812         0.161858      0.05996665                0               0                0               0
15.855               -0.04924298      -0.4285852        0.1661505      0.05086001                0               0                0               0
15.87                -0.06193708      -0.4229277        0.1699846      0.04145701                0               0                0               0
15.885               -0.07427908      -0.4167352        0.1733487      0.03176543                0               0                0               0
15.9                 -0.08623407      -0.4100429        0.1762235      0.02179028                0               0                0               0
15.915               -0.09778076      -0.4028895        0.1785817      0.01153798                0               0                0               0
15.93                 -0.1089079      -0.3953114        0.1803887     0.001020634                0               0                0               0
15.945                -0.1196133      -0.3873374        0.1816052     -0.00974072                0               0                0               0
15.96                 -0.1298984      -0.3789863        0.1821917     -0.02071447                0               0                0               0
15.975                -0.1397611      -0.3702674        0.1821127     -0.03185898                0               0                0               0
15.99                 -0.1491923      -0.3611832        0.1813401     -0.04312493                0               0                0               0
16.005                -0.1581728      -0.3517346        0.1798552     -0.05445897                0               0                0               0
16.02                 -0.1666733      -0.3419268        0.1776484     -0.06580803                0               0                0               0
16.035                -0.1746567      -0.3317742        0.1747178     -0.07712184                0               0                0               0
16.05                 -0.1820848      -0.3213032        0.1710654     -0.08835568                0               0                0               0
16.065                -0.1889219      -0.3105528        0.1666939     -0.09946998                0               0                0               0
16.08                 -0.1951419      -0.2995719        0.1616034       -0.110428                0               0                0               0
16.095                -0.2007303      -0.2884144        0.1557902      -0.1211932                0               0                0               0
16.11                 -0.2056856      -0.2771336        0.1492468      -0.1317253                0               0                0               0
16.125                -0.2100167      -0.2657776        0.1419643      -0.1419773                0               0                0               0
16.14                 -0.2137387      -0.2543851        0.1339361      -0.1518939                0               0                0               0
16.155                -0.2168681      -0.2429852        0.1251617      -0.1614115                0               0                0               0
16.17                 -0.2194173      -0.2315996        0.1156501      -0.1704609                0               0                0               0
16.185                -0.2213918      -0.2202459        0.1054223      -0.1789705                0               0                0               0
16.2                  -0.2227894      -0.2089433       0.09451205      -0.1868706                0               0                0               0
16.215                -0.2236029      -0.1977172       0.08296333      -0.1940973                0               0                0               0
16.23                 -0.2238236      -0.1866017       0.07082815      -0.2005954                0               0                0               0
16.245                -0.2234468      -0.1756411       0.05816199      -0.2063191                0               0                0               0
16.26                 -0.2224773       -0.164887        0.0450208      -0.2112307                0               0                0               0
16.275                -0.2209319      -0.1543941       0.03145824      -0.2152988                0               0                0               0
16.29                 -0.2188413      -0.1442148       0.01752518      -0.2184943                0               0                0               0
16.305                -0.2162473      -0.1343932       0.00327058      -0.2207878                0               0                0               0
16.32                 -0.2131994      -0.1249618      -0.01125582      -0.2221475                0               0                0               0
16.335                -0.2097487      -0.1159399      -0.02600003      -0.2225388                0               0                0               0
16.35                 -0.2059428      -0.1073347       -0.0409007      -0.2219263                0               0                0               0
16.365                -0.2018218     -0.09914515      -0.05588705      -0.2202765                0               0                0               0
16.38                 -0.1974163     -0.09136707      -0.07087845      -0.2175622                0               0                0               0
16.395                -0.1927489     -0.08399817       -0.0857861      -0.2137664                0               0                0               0
16.41                 -0.1878373     -0.07704169       -0.1005166       -0.208885                0               0                0               0
16.425                -0.1826998     -0.07050792       -0.1149755      -0.2029281                0               0                0               0
16.44                 -0.1773595     -0.06441288        -0.129073      -0.1959191                0               0                0               0
16.455                -0.1718483     -0.05877405       -0.1427262      -0.1878919                0               0                0               0
16.47                 -0.1662083     -0.05360553       -0.1558615      -0.1788868                0               0                0               0
16.485                -0.1604895     -0.04891196       -0.1684145      -0.1689472                0               0                0               0
16.5                  -0.1547458     -0.04468496       -0.1803272      -0.1581154                0               0                0               0
16.515                -0.1490284     -0.04090108       -0.1915457      -0.1464313                0               0                0               0
16.53                 -0.1433799     -0.03752356       -0.2020159      -0.1339327                0               0                0               0
16.545                -0.1378285     -0.03450672       -0.2116804      -0.1206572                0               0                0               0
16.56                 -0.1323857     -0.03180265       -0.2204775       -0.106646                0               0                0               0
16.575                -0.1270467     -0.02936826       -0.2283417     -0.09194798                0               0                0               0
16.59                 -0.1217944     -0.02717172        -0.235206      -0.0766222                0               0                0               0
16.605                -0.1166056     -0.02519617       -0.2410062     -0.06074091                0               0                0               0
16.62                 -0.1114581     -0.02344034       -0.2456857     -0.04438858                0               0                0               0
16.635                -0.1063381     -0.02191587       -0.2491996     -0.02765959                0               0                0               0
16.65                 -0.1012444     -0.02064149       -0.2515177     -0.01065448                0               0                0               0
16.665               -0.09619024     -0.01963595       -0.2526255     0.006525049                0               0                0               0
16.68                -0.09120131     -0.01891115       -0.2525225      0.02378133                0               0                0               0
16.695               -0.08631091     -0.01846674       -0.2512197      0.04102407                0               0                0               0
16.71                -0.08155306     -0.01828773       -0.2487345      0.05817232                0               0                0               0
16.725                -0.0769555     -0.01834559       -0.2450866        0.075154                0               0                0               0
16.74                -0.07253384     -0.01860244        -0.240294      0.09190388                0               0                0               0
16.755               -0.06828836     -0.01901737       -0.2343715       0.1083596                0               0                0               0
16.77                -0.06420401     -0.01955353       -0.2273298       0.1244576                0               0                0               0
16.785               -0.06025363     -0.02018454       -0.2191783       0.1401303                0               0                0               0
16.8                  -0.0564036     -0.02089847        -0.209928       0.1553027                0               0                0               0
16.815               -0.05262052     -0.02169899       -0.1995956       0.1698933                0               0                0               0
16.83                -0.04887766      -0.0226035       -0.1882075       0.1838152                0               0                0               0
16.845                -0.0451595     -0.02363866       -0.1758018       0.1969792                0               0                0               0
16.86                -0.04146395     -0.02483456       -0.1624297       0.2092982                0               0                0               0
16.875               -0.03780149       -0.026219       -0.1481549       0.2206904                0               0                0               0
16.89                -0.03419212     -0.02781288       -0.1330503        0.231083                0               0                0               0
16.905               -0.03066071     -0.02962792       -0.1171961       0.2404135                0               0                0               0
16.92                -0.02723232      -0.0316667       -0.1006754       0.2486296                0               0                0               0
16.935               -0.02392832     -0.03392503       -0.0835722       0.2556888                0               0                0               0
16.95                -0.02076439     -0.03639558      -0.06596961        0.261555                0               0                0               0
16.965               -0.01775082     -0.03907188      -0.04794971       0.2661975                0               0                0               0
16.98                -0.01489478     -0.04195131      -0.02959409       0.2695887                0               0                0               0
16.995               -0.01220361     -0.04503658        -0.010986       0.2717035                0               0                0               0
17.01               -0.009688756     -0.04833505      0.007788096       0.2725195                0               0                0               0
17.025               -0.00736849     -0.05185625       0.02663749       0.2720187                0               0                0               0
17.04               -0.005269251     -0.05560819       0.04546702       0.2701896                0               0                0               0
17.055              -0.003425025     -0.05959338       0.06417737       0.2670288                0               0                0               0
17.07               -0.001874824     -0.06380561       0.08266747       0.2625431                0               0                0               0
17.085             -0.0006588842     -0.06822827        0.1008367         0.25675                0               0                0               0
17.1                0.0001852971     -0.07283454        0.1185872       0.2496773                0               0                0               0
17.115              0.0006264671     -0.07758939         0.135826       0.2413612                0               0                0               0
17.13               0.0006416324     -0.08245281        0.1524662       0.2318453                0               0                0               0
17.145              0.0002163522     -0.08738345        0.1684268       0.2211776                0               0                0               0
17.16              -0.0006566463     -0.09234179        0.1836322       0.2094095                0               0                0               0
17.175              -0.001980194     -0.09729196        0.1980109       0.1965947                0               0                0               0
17.19               -0.003755731       -0.102202        0.2114935       0.1827893                0               0                0               0
17.205              -0.005985747      -0.1070427         0.224013        0.168053                0               0                0               0
17.22               -0.008675471      -0.1117844        0.2355035       0.1524504                0               0                0               0
17.235               -0.01183246      -0.1163949        0.2459019        0.136052                0               0                0               0
17.25                -0.01546499      -0.1208362        0.2551492       0.1189353                0               0                0               0
17.265               -0.01957911      -0.1250639        0.2631925       0.1011846                0               0                0               0
17.28                -0.02417515      -0.1290266        0.2699872      0.08288994                0               0                0               0
17.295               -0.02924499      -0.1326683        0.2754982       0.0641452                0               0                0               0
17.31                -0.03477007      -0.1359315        0.2797002      0.04504553                0               0                0               0
17.325               -0.04072097      -0.1387603        0.2825776       0.0256851                0               0                0               0
17.34                -0.04705875       -0.141104        0.2841222     0.006155294                0               0                0               0
17.355               -0.05373742      -0.1429196        0.2843318     -0.01345618                0               0                0               0
17.37                -0.06070699      -0.1441727        0.2832076     -0.03306499                0               0                0               0
17.385               -0.06791642      -0.1448367        0.2807528     -0.05258906                0               0                0               0
17.4                 -0.07531595      -0.1448917        0.2769719     -0.07194665                0               0                0               0
17.415               -0.08285788      -0.1443216        0.2718711     -0.09105457                0               0                0               0
17.43                -0.09049623      -0.1431123        0.2654597      -0.1098268                0               0                0               0
17.445               -0.09818531      -0.1412499        0.2577521      -0.1281738                0               0                0               0
17.46                 -0.1058776      -0.1387207        0.2487703      -0.1460035                0               0                0               0
17.475                -0.1135221      -0.1355117        0.2385452      -0.1632227                0               0                0               0
17.49                  -0.121063       -0.131613        0.2271176      -0.1797395                0               0                0               0
17.505                -0.1284396      -0.1270196        0.2145381      -0.1954662                0               0                0               0
17.52                 -0.1355877      -0.1217339        0.2008654      -0.2103211                0               0                0               0
17.535                -0.1424422      -0.1157674        0.1861642      -0.2242299                0               0                0               0
17.55                  -0.148939      -0.1091402        0.1705031      -0.2371265                0               0                0               0
17.565                 -0.155018      -0.1018809        0.1539517      -0.2489514                0               0                0               0
17.58                 -0.1606252     -0.09402412        0.1365799      -0.2596506                0               0                0               0
17.595                -0.1657129     -0.08560798        0.1184569      -0.2691731                0               0                0               0
17.61                 -0.1702393     -0.07667194       0.09965272      -0.2774694                0               0                0               0
17.625                -0.1741669     -0.06725492       0.08023914      -0.2844901                0               0                0               0
17.64                 -0.1774608     -0.05739489       0.06029195      -0.2901861                0               0                0               0
17.655                -0.1800861     -0.04712914       0.03989331       -0.294509                0               0                0               0
17.67                 -0.1820069     -0.03649632       0.01913237      -0.2974138                0               0                0               0
17.685                -0.1831862     -0.02553792     -0.001893696      -0.2988606                0               0                0               0
17.7                  -0.1835867     -0.01430078      -0.02308117      -0.2988173                0               0                0               0
17.715                -0.1831725    -0.002838043       -0.0443211      -0.2972615                0               0                0               0
17.73                 -0.1819118     0.008790332      -0.06550162      -0.2941811                0               0                0               0
17.745                -0.1797794      0.02051891      -0.08651016      -0.2895746                0               0                0               0
17.76                 -0.1767581      0.03227856       -0.1072356      -0.2834497                0               0                0               0
17.775                -0.1728391      0.04399914       -0.1275689      -0.2758219                0               0                0               0
17.79                 -0.1680219      0.05561199       -0.1474035      -0.2667129                0               0                0               0
17.805                 -0.162312      0.06705198       -0.1666344      -0.2561496                0               0                0               0
17.82                 -0.1557191        0.078258       -0.1851569      -0.2441634                0               0                0               0
17.835                -0.1482544      0.08917277       -0.2028652      -0.2307912                0               0                0               0
17.85                 -0.1399285      0.09974124       -0.2196516      -0.2160766                0               0                0               0
17.865                -0.1307517       0.1099085       -0.2354067       -0.200072                0               0                0               0
17.88                 -0.1207338       0.1196173       -0.2500205      -0.1828404                0               0                0               0
17.895                -0.1098857       0.1288064       -0.2633841      -0.1644575                0               0                0               0
17.91                -0.09822242       0.1374102       -0.2753925      -0.1450124                0               0                0               0
17.925               -0.08576506       0.1453589       -0.2859475      -0.1246067                0               0                0               0
17.94                 -0.0725431       0.1525805       -0.2949605       -0.103354                0               0                0               0
17.955               -0.05859528        0.159003       -0.3023541     -0.08137773                0               0                0               0