! TOUCHSTONE file generated by CST MICROWAVE STUDIO
! Date and time: Fri Mar 13 14:22:28 2026
! Project name: MS_SWL_GA.cst
! Parameters = {H=1.27; L=60; Ls=0.5; T=0.035; W=4; Wgnd=40; rep=3}
! Header version: 2018
! Port assignment regex: !\s*Touchstone port\s*([0-9]+)\s*=\s*(CST MWS port|CST DS port)\s*([0-9]+|Zmin|Zmax)\s*\(\"(.*)\"\)(\s*mode\s*([0-9]+))?.*
! Touchstone port assignment:
! Touchstone port 1 = CST MWS port 1 ("")
! Touchstone port 2 = CST MWS port 2 ("")
! S-Parameters are not renormalized. Unphysical impedance of 0 will be written to the file.
# GHz S RI R 0
15                     0.5664957      -0.1362134       -0.1178696       0.1100871                0               0                0               0
15.015                 0.5611678      -0.1590231       -0.1107433       0.1166109                0               0                0               0
15.03                  0.5549423      -0.1815328       -0.1033066       0.1226916                0               0                0               0
15.045                 0.5478162      -0.2037236      -0.09558287       0.1283217                0               0                0               0
15.06                   0.539784      -0.2255717      -0.08759452       0.1334942                0               0                0               0
15.075                 0.5308393      -0.2470479      -0.07936314       0.1382021                0               0                0               0
15.09                  0.5209761      -0.2681172      -0.07090967       0.1424385                0               0                0               0
15.105                 0.5101894      -0.2887393      -0.06225486       0.1461961                0               0                0               0
15.12                  0.4984769       -0.308868      -0.05341932       0.1494676                0               0                0               0
15.135                 0.4858406      -0.3284523      -0.04442393       0.1522452                0               0                0               0
15.15                  0.4722874      -0.3474371      -0.03529002        0.154521                0               0                0               0
15.165                 0.4578297      -0.3657633      -0.02603975       0.1562871                0               0                0               0
15.18                  0.4424868      -0.3833697      -0.01669615       0.1575355                0               0                0               0
15.195                 0.4262855      -0.4001937     -0.007283313       0.1582587                0               0                0               0
15.21                  0.4092598      -0.4161727      0.002173336       0.1584494                0               0                0               0
15.225                 0.3914515      -0.4312449       0.01164707       0.1581013                0               0                0               0
15.24                    0.37291       -0.445351       0.02110982        0.157209                0               0                0               0
15.255                 0.3536922      -0.4584354       0.03053228       0.1557685                0               0                0               0
15.27                  0.3338612      -0.4704474        0.0398838       0.1537773                0               0                0               0
15.285                 0.3134868      -0.4813415        0.0491326       0.1512346                0               0                0               0
15.3                   0.2926432      -0.4910791       0.05824611       0.1481418                0               0                0               0
15.315                 0.2714096      -0.4996289       0.06719081       0.1445027                0               0                0               0
15.33                  0.2498676      -0.5069674       0.07593291       0.1403231                0               0                0               0
15.345                  0.228101      -0.5130791       0.08443826       0.1356118                0               0                0               0
15.36                  0.2061945      -0.5179567       0.09267284       0.1303797                0               0                0               0
15.375                 0.1842319      -0.5216011         0.100603       0.1246407                0               0                0               0
15.39                  0.1622962      -0.5240206        0.1081956       0.1184113                0               0                0               0
15.405                 0.1404671      -0.5252318        0.1154187       0.1117103                0               0                0               0
15.42                  0.1188214      -0.5252568        0.1222414       0.1045591                0               0                0               0
15.435                0.09743215      -0.5241245        0.1286342      0.09698152                0               0                0               0
15.45                 0.07636674      -0.5218686        0.1345693      0.08900322                0               0                0               0
15.465                0.05568863      -0.5185271        0.1400208      0.08065201                0               0                0               0
15.48                 0.03545501      -0.5141412        0.1449647      0.07195734                0               0                0               0
15.495                0.01571808      -0.5087544         0.149379      0.06295019                0               0                0               0
15.51               -0.003475389      -0.5024118        0.1532441       0.0536628                0               0                0               0
15.525               -0.02208305      -0.4951591        0.1565423      0.04412848                0               0                0               0
15.54                 -0.0400672      -0.4870418        0.1592582      0.03438139                0               0                0               0
15.555               -0.05739458       -0.478105        0.1613785      0.02445637                0               0                0               0
15.57                 -0.0740345      -0.4683927        0.1628919      0.01438878                0               0                0               0
15.585               -0.08995891      -0.4579475        0.1637894      0.00421434                0               0                0               0
15.6                  -0.1051425      -0.4468105        0.1640635    -0.006030921                0               0                0               0
15.615                -0.1195602      -0.4350218        0.1637088     -0.01631078                0               0                0               0
15.63                  -0.133188      -0.4226199        0.1627217     -0.02658886                0               0                0               0
15.645                -0.1460013      -0.4096432        0.1611001     -0.03682861                0               0                0               0
15.66                 -0.1579756      -0.3961293        0.1588437     -0.04699333                0               0                0               0
15.675                -0.1690851      -0.3821166        0.1559536     -0.05704614                0               0                0               0
15.69                 -0.1793036      -0.3676445        0.1524327      -0.0669499                0               0                0               0
15.705                -0.1886029      -0.3527542        0.1482855     -0.07666718                0               0                0               0
15.72                  -0.196955      -0.3374894        0.1435182     -0.08616026                0               0                0               0
15.735                -0.2043307      -0.3218976        0.1381387       -0.095391                0               0                0               0
15.75                 -0.2107013      -0.3060297        0.1321569      -0.1043209                0               0                0               0
15.765                -0.2160383      -0.2899419        0.1255847       -0.112911                0               0                0               0
15.78                 -0.2203154      -0.2736946        0.1184365      -0.1211221                0               0                0               0
15.795                -0.2235083      -0.2573544        0.1107289      -0.1289147                0               0                0               0
15.81                 -0.2255963      -0.2409927        0.1024815      -0.1362488                0               0                0               0
15.825                -0.2265635      -0.2246867       0.09371634       -0.143085                0               0                0               0
15.84                    -0.2264      -0.2085183        0.0844591      -0.1493836                0               0                0               0
15.855                -0.2251021      -0.1925743       0.07473843      -0.1551056                0               0                0               0
15.87                 -0.2226746      -0.1769453       0.06458659      -0.1602126                0               0                0               0
15.885                -0.2191309      -0.1617251       0.05403953      -0.1646675                0               0                0               0
15.9                   -0.214494       -0.147009       0.04313673      -0.1684347                0               0                0               0
15.915                -0.2087975      -0.1328932       0.03192171      -0.1714806                0               0                0               0
15.93                 -0.2020857       -0.119473       0.02044151      -0.1737739                0               0                0               0
15.945                -0.1944137      -0.1068417      0.008746896      -0.1752865                0               0                0               0
15.96                 -0.1858478     -0.09508859     -0.003107773      -0.1759934                0               0                0               0
15.975                -0.1764654     -0.08429773      -0.01506484      -0.1758738                0               0                0               0
15.99                 -0.1663537     -0.07454613      -0.02706367       -0.174911                0               0                0               0
16.005                  -0.15561     -0.06590243      -0.03904104      -0.1730934                0               0                0               0
16.02                 -0.1443398     -0.05842547      -0.05093155      -0.1704145                0               0                0               0
16.035                -0.1326563     -0.05216303      -0.06266809      -0.1668735                0               0                0               0
16.05                 -0.1206786     -0.04715046      -0.07418244      -0.1624755                0               0                0               0
16.065                -0.1085303     -0.04341041      -0.08540595      -0.1572315                0               0                0               0
16.08                -0.09633789     -0.04095152      -0.09626991      -0.1511593                0               0                0               0
16.095               -0.08422874     -0.03976848       -0.1067068      -0.1442826                0               0                0               0
16.11                -0.07232938     -0.03984176       -0.1166505      -0.1366319                0               0                0               0
16.125               -0.06076374     -0.04113762        -0.126037      -0.1282436                0               0                0               0
16.14                 -0.0496512     -0.04360881       -0.1348054      -0.1191604                0               0                0               0
16.155               -0.03910496     -0.04719497       -0.1428985      -0.1094307                0               0                0               0
16.17                -0.02923028     -0.05182374       -0.1502634     -0.09910826                0               0                0               0
16.185               -0.02012324     -0.05741176       -0.1568517     -0.08825201                0               0                0               0
16.2                 -0.01186921      -0.0638662       -0.1626208     -0.07692497                0               0                0               0
16.215               -0.00454198     -0.07108608       -0.1675339     -0.06519426                0               0                0               0
16.23                0.001797103     -0.07896402       -0.1715601      -0.0531302                0               0                0               0
16.245               0.007099732     -0.08738792       -0.1746755     -0.04080555                0               0                0               0
16.26                 0.01133093     -0.09624271       -0.1768628     -0.02829473                0               0                0               0
16.275                0.01446912      -0.1054122       -0.1781114     -0.01567356                0               0                0               0
16.29                 0.01650575      -0.1147805       -0.1784178      -0.0030178                0               0                0               0
16.305                 0.0174451      -0.1242342       -0.1777855     0.009596918                0               0                0               0
16.32                  0.0173034      -0.1336634       -0.1762242      0.02209617                0               0                0               0
16.335                0.01610799      -0.1429633       -0.1737507      0.03440738                0               0                0               0
16.35                  0.0138963      -0.1520353       -0.1703873       0.0464602                0               0                0               0
16.365                0.01071457      -0.1607881       -0.1661627       0.0581874                0               0                0               0
16.38                0.006616662      -0.1691385       -0.1611105      0.06952523                0               0                0               0
16.395               0.001662701      -0.1770117       -0.1552694      0.08041374                0               0                0               0
16.41               -0.004082328       -0.184342       -0.1486824       0.0907975                0               0                0               0
16.425               -0.01054988      -0.1910726       -0.1413963       0.1006254                0               0                0               0
16.44                -0.01766934      -0.1971556       -0.1334612       0.1098514                0               0                0               0
16.455               -0.02536904      -0.2025518       -0.1249297       0.1184344                0               0                0               0
16.47                -0.03357721        -0.20723        -0.115857        0.126338                0               0                0               0
16.485               -0.04222341      -0.2111667       -0.1062995       0.1335313                0               0                0               0
16.5                 -0.05123898       -0.214345        -0.096315       0.1399882                0               0                0               0
16.515               -0.06055761       -0.216754       -0.0859617       0.1456874                0               0                0               0
16.53                -0.07011596       -0.218388      -0.07529823       0.1506126                0               0                0               0
16.545               -0.07985394      -0.2192454      -0.06438297       0.1547517                0               0                0               0
16.56                -0.08971459      -0.2193282      -0.05327391       0.1580973                0               0                0               0
16.575               -0.09964418      -0.2186406      -0.04202811       0.1606459                0               0                0               0
16.59                 -0.1095919       -0.217189      -0.03070168       0.1623979                0               0                0               0
16.605                -0.1195094      -0.2149808       -0.0193496       0.1633573                0               0                0               0
16.62                 -0.1293505      -0.2120242     -0.008025114       0.1635317                0               0                0               0
16.635                -0.1390707      -0.2083279      0.003219606       0.1629314                0               0                0               0
16.65                 -0.1486261      -0.2039008       0.01433419       0.1615701                0               0                0               0
16.665                -0.1579737      -0.1987518       0.02526998        0.159464                0               0                0               0
16.68                 -0.1670698      -0.1928903       0.03597982       0.1566318                0               0                0               0
16.695                -0.1758701      -0.1863261       0.04641838       0.1530947                0               0                0               0
16.71                 -0.1843292      -0.1790702       0.05654213       0.1488764                0               0                0               0
16.725                -0.1924003      -0.1711348       0.06630909       0.1440024                0               0                0               0
16.74                 -0.2000344      -0.1625344       0.07567921       0.1385008                0               0                0               0
16.755                 -0.207181      -0.1532862       0.08461422       0.1324014                0               0                0               0
16.77                  -0.213788      -0.1434108       0.09307777       0.1257361                0               0                0               0
16.785                -0.2198014      -0.1329331        0.1010353       0.1185391                0               0                0               0
16.8                  -0.2251662      -0.1218827        0.1084544       0.1108462                0               0                0               0
16.815                -0.2298271      -0.1102951        0.1153047       0.1026953                0               0                0               0
16.83                 -0.2337286     -0.09821149        0.1215581      0.09412611                0               0                0               0
16.845                -0.2368162     -0.08567977        0.1271889      0.08518029                0               0                0               0
16.86                 -0.2390376     -0.07275449        0.1321741      0.07590118                0               0                0               0
16.875                 -0.240343      -0.0594974        0.1364931      0.06633381                0               0                0               0
16.89                  -0.240687     -0.04597701        0.1401285      0.05652472                0               0                0               0
16.905                -0.2400287     -0.03226866        0.1430659      0.04652182                0               0                0               0
16.92                  -0.238334     -0.01845388        0.1452942      0.03637425                0               0                0               0
16.935                -0.2355757    -0.004620194        0.1468057      0.02613209                0               0                0               0
16.95                 -0.2317346     0.009139984        0.1475962      0.01584613                0               0                0               0
16.965                -0.2268009      0.02273022        0.1476655     0.005567633                0               0                0               0
16.98                 -0.2207745      0.03605076        0.1470168    -0.004652031                0               0                0               0
16.995                -0.2136655      0.04900036        0.1456577     -0.01476168                0               0                0               0
17.01                 -0.2054951      0.06147694        0.1435992     -0.02471066                0               0                0               0
17.025                -0.1962954      0.07337931        0.1408565     -0.03444924                0               0                0               0
17.04                 -0.1861095      0.08460852        0.1374487     -0.04392893                0               0                0               0
17.055                -0.1749916       0.0950691        0.1333984     -0.05310287                0               0                0               0
17.07                 -0.1630061       0.1046707        0.1287321     -0.06192615                0               0                0               0
17.085                -0.1502276       0.1133293        0.1234796     -0.07035621                0               0                0               0
17.1                  -0.1367398       0.1209682        0.1176738      -0.0783531                0               0                0               0
17.115                -0.1226347       0.1275196        0.1113508     -0.08587978                0               0                0               0
17.13                 -0.1080113       0.1329253        0.1045491      -0.0929024                0               0                0               0
17.145               -0.09297469       0.1371374       0.09730952     -0.09939049                0               0                0               0
17.16                -0.07763458       0.1401193       0.08967511      -0.1053171                0               0                0               0
17.175               -0.06210394       0.1418457       0.08169026      -0.1106592                0               0                0               0
17.19                -0.04649755       0.1423034       0.07340071      -0.1153972                0               0                0               0
17.205               -0.03093087       0.1414907       0.06485312      -0.1195155                0               0                0               0
17.22                -0.01551806        0.139418       0.05609452      -0.1230025                0               0                0               0
17.235              -0.000371375       0.1361068       0.04717211      -0.1258501                0               0                0               0
17.25                 0.01440069       0.1315894       0.03813301      -0.1280541                0               0                0               0
17.265                0.02869429       0.1259087       0.02902365      -0.1296137                0               0                0               0
17.28                 0.04241116       0.1191167       0.01988978      -0.1305315                0               0                0               0
17.295                0.05545972       0.1112741       0.01077603      -0.1308136                0               0                0               0
17.31                 0.06775572       0.1024494      0.001725705      -0.1304688                0               0                0               0
17.325                0.07922281      0.09271729     -0.007219217      -0.1295089                0               0                0               0
17.34                 0.08979288      0.08215827      -0.01601866      -0.1279483                0               0                0               0
17.355                0.09940653      0.07085723      -0.02463403      -0.1258035                0               0                0               0
17.37                  0.1080129      0.05890243      -0.03302865      -0.1230935                0               0                0               0
17.385                   0.11557      0.04638466      -0.04116789       -0.119839                0               0                0               0
17.4                    0.122044      0.03339621      -0.04901876      -0.1160625                0               0                0               0
17.415                 0.1274097      0.02003008      -0.05655048      -0.1117879                0               0                0               0
17.43                  0.1316496     0.006379188      -0.06373393      -0.1070407                0               0                0               0
17.445                 0.1347537    -0.007464188      -0.07054202      -0.1018475                0               0                0               0
17.46                  0.1367191       -0.021409      -0.07694941     -0.09623601                0               0                0               0
17.475                 0.1375494     -0.03536583      -0.08293264     -0.09023505                0               0                0               0
17.49                  0.1372544     -0.04924719      -0.08846999     -0.08387434                0               0                0               0
17.505                 0.1358496     -0.06296778      -0.09354146      -0.0771845                0               0                0               0
17.52                  0.1333558      -0.0764446      -0.09812874     -0.07019699                0               0                0               0
17.535                 0.1297985     -0.08959701       -0.1022152     -0.06294426                0               0                0               0
17.55                  0.1252081      -0.1023468       -0.1057862     -0.05545932                0               0                0               0
17.565                 0.1196194       -0.114618       -0.1088284     -0.04777623                0               0                0               0
17.58                  0.1130715      -0.1263371       -0.1113308     -0.03992977                0               0                0               0
17.595                 0.1056076       -0.137433       -0.1132838     -0.03195548                0               0                0               0
17.61                 0.09727535      -0.1478367         -0.11468      -0.0238897                0               0                0               0
17.625                0.08812678      -0.1574816       -0.1155142     -0.01576951                0               0                0               0
17.64                 0.07821824      -0.1663038       -0.1157832    -0.007632555                0               0                0               0
17.655                0.06761082      -0.1742417       -0.1154861    0.0004829049                0               0                0               0
17.67                 0.05637053      -0.1812369       -0.1146247      0.00853816                0               0                0               0
17.685                0.04456824       -0.187234        -0.113203      0.01649415                0               0                0               0
17.7                  0.03227995      -0.1921816       -0.1112281      0.02431179                0               0                0               0
17.715                0.01958708      -0.1960322       -0.1087096       0.0319519                0               0                0               0
17.73                0.006576408      -0.1987434       -0.1056603      0.03937573                0               0                0               0
17.745               -0.00666026      -0.2002782       -0.1020958      0.04654494                0               0                0               0
17.76                -0.02002575      -0.2006059      -0.09803487      0.05342201                0               0                0               0
17.775               -0.03341793      -0.1997028      -0.09349912       0.0599706                0               0                0               0
17.79                -0.04673039      -0.1975533      -0.08851336      0.06615571                0               0                0               0
17.805               -0.05985263      -0.1941502      -0.08310533      0.07194397                0               0                0               0
17.82                 -0.0726708      -0.1894961      -0.07730565      0.07730416                0               0                0               0
17.835               -0.08506864      -0.1836035      -0.07114759      0.08220728                0               0                0               0
17.85                -0.09692824      -0.1764959      -0.06466708        0.086627                0               0                0               0
17.865                -0.1081314      -0.1682085      -0.05790227      0.09053987                0               0                0               0
17.88                 -0.1185606       -0.158788      -0.05089335      0.09392564                0               0                0               0
17.895                -0.1281004      -0.1482935      -0.04368243      0.09676737                0               0                0               0
17.91                 -0.1366386      -0.1367964      -0.03631288      0.09905178                0               0                0               0
17.925                -0.1440683      -0.1243804      -0.02882927       0.1007693                0               0                0               0
17.94                 -0.1502885       -0.111141      -0.02127681       0.1019141                0               0                0               0
17.955                -0.1552065     -0.09718562      -0.01370117       0.1024846                0               0                0               0