! TOUCHSTONE file generated by CST MICROWAVE STUDIO
! Date and time: Fri Mar 13 14:18:53 2026
! Project name: MS_SWL_uniplanar_top.cst
! Parameters = {H=1.27; L=60; W=4; Wgnd=40; rep_x=1; rep_y=39; s=1}
! Header version: 2018
! Port assignment regex: !\s*Touchstone port\s*([0-9]+)\s*=\s*(CST MWS port|CST DS port)\s*([0-9]+|Zmin|Zmax)\s*\(\"(.*)\"\)(\s*mode\s*([0-9]+))?.*
! Touchstone port assignment:
! Touchstone port 1 = CST MWS port 1 ("")
! Touchstone port 2 = CST MWS port 2 ("")
! S-Parameters are not renormalized. Unphysical impedance of 0 will be written to the file.
# GHz S RI R 0
15                      0.460346       0.1680311       -0.1313204    0.0006323769                0               0                0               0
15.015                 0.4695527       0.1492162        -0.130402     0.008508225                0               0                0               0
15.03                   0.477904       0.1300936       -0.1290353      0.01621853                0               0                0               0
15.045                 0.4853881       0.1107048       -0.1272447      0.02374312                0               0                0               0
15.06                  0.4919962      0.09109278       -0.1250547       0.0310654                0               0                0               0
15.075                 0.4977224      0.07130122       -0.1224889      0.03817195                0               0                0               0
15.09                  0.5025638      0.05137445       -0.1195699      0.04505222                0               0                0               0
15.105                 0.5065209      0.03135692       -0.1163185      0.05169806                0               0                0               0
15.12                  0.5095978      0.01129278        -0.112754      0.05810317                0               0                0               0
15.135                 0.5118015    -0.008774599       -0.1088937       0.0642629                0               0                0               0
15.15                  0.5131425     -0.02880304       -0.1047528      0.07017336                0               0                0               0
15.165                  0.513634     -0.04875197       -0.1003445      0.07583119                0               0                0               0
15.18                  0.5132924     -0.06858281      -0.09568049      0.08123299                0               0                0               0
15.195                  0.512136     -0.08825932      -0.09077045      0.08637493                0               0                0               0
15.21                  0.5101857      -0.1077478      -0.08562295      0.09125239                0               0                0               0
15.225                 0.5074635      -0.1270175      -0.08024535      0.09585967                0               0                0               0
15.24                   0.503993      -0.1460405      -0.07464462       0.1001897                0               0                0               0
15.255                 0.4997982      -0.1647917      -0.06882732       0.1042341                0               0                0               0
15.27                  0.4949037      -0.1832493      -0.06280035       0.1079828                0               0                0               0
15.285                 0.4893335      -0.2013941      -0.05657115       0.1114244                0               0                0               0
15.3                   0.4831114      -0.2192096      -0.05014832       0.1145462                0               0                0               0
15.315                 0.4762597      -0.2366817      -0.04354185       0.1173343                0               0                0               0
15.33                  0.4687998      -0.2537984      -0.03676351       0.1197739                0               0                0               0
15.345                 0.4607513      -0.2705493      -0.02982703       0.1218499                0               0                0               0
15.36                   0.452132      -0.2869256      -0.02274853       0.1235469                0               0                0               0
15.375                 0.4429581      -0.3029188      -0.01554629       0.1248497                0               0                0               0
15.39                  0.4332433      -0.3185214     -0.008241254       0.1257442                0               0                0               0
15.405                 0.4229998      -0.3337254    -0.0008564566       0.1262171                0               0                0               0
15.42                  0.4122381      -0.3485226      0.006582655       0.1262569                0               0                0               0
15.435                  0.400967      -0.3629039       0.01404862        0.125854                0               0                0               0
15.45                  0.3891939      -0.3768589        0.0215123       0.1250014                0               0                0               0
15.465                 0.3769253      -0.3903756       0.02894301       0.1236946                0               0                0               0
15.48                  0.3641673      -0.4034406        0.0363092       0.1219321                0               0                0               0
15.495                 0.3509258      -0.4160382       0.04357862       0.1197156                0               0                0               0
15.51                  0.3372068      -0.4281511       0.05071891       0.1170499                0               0                0               0
15.525                 0.3230174      -0.4397598       0.05769799        0.113943                0               0                0               0
15.54                  0.3083653      -0.4508429       0.06448475       0.1104062                0               0                0               0
15.555                 0.2932604      -0.4613771       0.07104915       0.1064539                0               0                0               0
15.57                   0.277714      -0.4713383       0.07736292        0.102103                0               0                0               0
15.585                   0.26174      -0.4807003       0.08339982      0.09737301                0               0                0               0
15.6                   0.2453551      -0.4894366       0.08913594      0.09228578                0               0                0               0
15.615                 0.2285789      -0.4975199       0.09454994      0.08686468                0               0                0               0
15.63                  0.2114334      -0.5049233       0.09962326      0.08113448                0               0                0               0
15.645                 0.1939436      -0.5116202        0.1043402      0.07512081                0               0                0               0
15.66                  0.1761392      -0.5175844        0.1086878       0.0688497                0               0                0               0
15.675                 0.1580507      -0.5227916        0.1126559      0.06234713                0               0                0               0
15.69                  0.1397123      -0.5272193        0.1162371      0.05563868                0               0                0               0
15.705                 0.1211611      -0.5308468         0.119426      0.04874904                0               0                0               0
15.72                  0.1024367      -0.5336561        0.1222197      0.04170176                0               0                0               0
15.735                0.08357964       -0.535632        0.1246166      0.03451901                0               0                0               0
15.75                 0.06463316      -0.5367624        0.1266167      0.02722133                0               0                0               0
15.765                0.04564102      -0.5370385        0.1282207      0.01982757                0               0                0               0
15.78                 0.02664861      -0.5364545          0.12943      0.01235485                0               0                0               0
15.795               0.007700413      -0.5350084        0.1302458     0.004818663                0               0                0               0
15.81                -0.01115824       -0.532701        0.1306691     -0.00276701                0               0                0               0
15.825                -0.0298822      -0.5295368           0.1307     -0.01038945                0               0                0               0
15.84                -0.04842779       -0.525523        0.1303377      -0.0180369                0               0                0               0
15.855                -0.0667522      -0.5206697        0.1295801     -0.02569817                0               0                0               0
15.87                -0.08481371      -0.5149894        0.1284233     -0.03336227                0               0                0               0
15.885                 -0.102572      -0.5084974        0.1268621     -0.04101789                0               0                0               0
15.9                  -0.1199894      -0.5012099        0.1248896     -0.04865291                0               0                0               0
15.915                -0.1370284      -0.4931456        0.1224973     -0.05625398                0               0                0               0
15.93                 -0.1536549      -0.4843241        0.1196756       -0.063806                0               0                0               0
15.945                -0.1698349      -0.4747661        0.1164136     -0.07129169                0               0                0               0
15.96                 -0.1855372      -0.4644929        0.1126997     -0.07869101                0               0                0               0
15.975                -0.2007311      -0.4535265        0.1085223     -0.08598101                0               0                0               0
15.99                 -0.2153874      -0.4418891        0.1038698     -0.09313568                0               0                0               0
16.005                -0.2294781      -0.4296029        0.0987318      -0.1001253                0               0                0               0
16.02                 -0.2429755      -0.4166904       0.09309901      -0.1069169                0               0                0               0
16.035                -0.2558519      -0.4031745       0.08696456      -0.1134739                0               0                0               0
16.05                 -0.2680807      -0.3890778       0.08032443      -0.1197561                0               0                0               0
16.065                -0.2796341      -0.3744237       0.07317793      -0.1257205                0               0                0               0
16.08                 -0.2904847      -0.3592362       0.06552868      -0.1313211                0               0                0               0
16.095                -0.3006043      -0.3435395       0.05738489      -0.1365096                0               0                0               0
16.11                  -0.309964      -0.3273598       0.04876013       -0.141236                0               0                0               0
16.125                -0.3185343      -0.3107242       0.03967358      -0.1454492                0               0                0               0
16.14                 -0.3262848       -0.293662       0.03015081      -0.1490975                0               0                0               0
16.155                -0.3331849      -0.2762046       0.02022334      -0.1521298                0               0                0               0
16.17                 -0.3392033      -0.2583859      0.009929658      -0.1544962                0               0                0               0
16.185                -0.3443083      -0.2402431    -0.0006856611      -0.1561489                0               0                0               0
16.2                   -0.348469      -0.2218165      -0.01157112      -0.1570434                0               0                0               0
16.215                -0.3516544      -0.2031502      -0.02266932      -0.1571387                0               0                0               0
16.23                  -0.353835      -0.1842923      -0.03391693      -0.1563991                0               0                0               0
16.245                -0.3549822      -0.1652947      -0.04524513      -0.1547942                0               0                0               0
16.26                 -0.3550704      -0.1462137      -0.05658039      -0.1523002                0               0                0               0
16.275                -0.3540759      -0.1271096      -0.06784505      -0.1489004                0               0                0               0
16.29                 -0.3519789      -0.1080473      -0.07895823      -0.1445859                0               0                0               0
16.305                -0.3487633     -0.08909513      -0.08983656      -0.1393558                0               0                0               0
16.32                 -0.3444177     -0.07032546       -0.1003952      -0.1332182                0               0                0               0
16.335                -0.3389359     -0.05181404       -0.1105491      -0.1261896                0               0                0               0
16.35                 -0.3323175      -0.0336392       -0.1202136       -0.118296                0               0                0               0
16.365                -0.3245685     -0.01588214       -0.1293057      -0.1095719                0               0                0               0
16.38                 -0.3157017     0.001374677       -0.1377453      -0.1000611                0               0                0               0
16.395                -0.3057369      0.01804725       -0.1454558     -0.08981571                0               0                0               0
16.41                 -0.2947015      0.03405157       -0.1523655     -0.07889614                0               0                0               0
16.425                -0.2826304      0.04930396       -0.1584083     -0.06737046                0               0                0               0
16.44                 -0.2695666      0.06372213       -0.1635249     -0.05531367                0               0                0               0
16.455                -0.2555606       0.0772258       -0.1676629     -0.04280723                0               0                0               0
16.47                 -0.2406707      0.08973778       -0.1707783     -0.02993798                0               0                0               0
16.485                -0.2249628       0.1011846       -0.1728355     -0.01679728                0               0                0               0
16.5                  -0.2085096       0.1114976       -0.1738081    -0.003480296                0               0                0               0
16.515                -0.1913911       0.1206133        -0.173679     0.009915341                0               0                0               0
16.53                 -0.1736932       0.1284745       -0.1724408       0.0232904                0               0                0               0
16.545                -0.1555075       0.1350309       -0.1700961      0.03654511                0               0                0               0
16.56                 -0.1369309       0.1402395        -0.166657      0.04958012                0               0                0               0
16.575                -0.1180643       0.1440653       -0.1621453      0.06229778                0               0                0               0
16.59                -0.09901275       0.1464816       -0.1565922      0.07460269                0               0                0               0
16.605               -0.07988333       0.1474706       -0.1500382      0.08640321                0               0                0               0
16.62                -0.06078551       0.1470234       -0.1425321      0.09761199                0               0                0               0
16.635               -0.04182974       0.1451401       -0.1341308       0.1081469                0               0                0               0
16.65                -0.02312661       0.1418304       -0.1248987       0.1179318                0               0                0               0
16.665              -0.004786137       0.1371128       -0.1149071       0.1268972                0               0                0               0
16.68                 0.01308304       0.1310153       -0.1042331       0.1349809                0               0                0               0
16.695                0.03037478       0.1235745      -0.09295919       0.1421285                0               0                0               0
16.71                 0.04698581       0.1148358      -0.08117207       0.1482938                0               0                0               0
16.725                0.06281674        0.104853      -0.06896211       0.1534392                0               0                0               0
16.74                 0.07777262      0.09368788      -0.05642208       0.1575358                0               0                0               0
16.755                0.09176375      0.08140961      -0.04364675       0.1605635                0               0                0               0
16.77                   0.104706       0.0680945      -0.03073172       0.1625113                0               0                0               0
16.785                 0.1165215       0.0538253      -0.01777225       0.1633773                0               0                0               0
16.8                   0.1271394      0.03869073     -0.004863257       0.1631678                0               0                0               0
16.815                 0.1364956       0.0227848      0.007902453       0.1618983                0               0                0               0
16.83                  0.1445338     0.006206276       0.02043443       0.1595922                0               0                0               0
16.845                 0.1512055     -0.01094197       0.03264543       0.1562811                0               0                0               0
16.86                  0.1564704     -0.02855362       0.04445216        0.152004                0               0                0               0
16.875                 0.1602963     -0.04651956       0.05577572       0.1468069                0               0                0               0
16.89                  0.1626596     -0.06472852       0.06654283       0.1407425                0               0                0               0
16.905                 0.1635453     -0.08306774       0.07668559       0.1338693                0               0                0               0
16.92                  0.1629472      -0.1014236       0.08614235       0.1262511                0               0                0               0
16.935                 0.1608674      -0.1196823       0.09485815       0.1179565                0               0                0               0
16.95                  0.1573171      -0.1377306        0.1027849       0.1090579                0               0                0               0
16.965                 0.1523158      -0.1554562        0.1098816      0.09963121                0               0                0               0
16.98                  0.1458916      -0.1727488         0.116115      0.08975459                0               0                0               0
16.995                 0.1380808      -0.1895001        0.1214589      0.07950818                0               0                0               0
17.01                   0.128928      -0.2056051         0.125895      0.06897315                0               0                0               0
17.025                 0.1184856      -0.2209625        0.1294126      0.05823104                0               0                0               0
17.04                  0.1068136      -0.2354748        0.1320081      0.04736298                0               0                0               0
17.055                0.09397934      -0.2490497        0.1336855      0.03644906                0               0                0               0
17.07                 0.08005694      -0.2615998        0.1344559      0.02556762                0               0                0               0
17.085                0.06512705      -0.2730439        0.1343368      0.01479461                0               0                0               0
17.1                   0.0492765       -0.283307        0.1333526     0.004203015                0               0                0               0
17.115                0.03259755      -0.2923209        0.1315333    -0.006137698                0               0                0               0
17.13                 0.01518725      -0.3000246        0.1289147      -0.0161621                0               0                0               0
17.145               -0.00285266      -0.3063647        0.1255375     -0.02580922                0               0                0               0
17.16                -0.02141681      -0.3112959         0.121447     -0.03502293                0               0                0               0
17.175                -0.0403966      -0.3147808        0.1166925     -0.04375228                0               0                0               0
17.19                -0.05968083      -0.3167906        0.1113264     -0.05195172                0               0                0               0
17.205               -0.07915691      -0.3173052        0.1054041     -0.05958129                0               0                0               0
17.22                -0.09871076       -0.316313       0.09898298     -0.06660672                0               0                0               0
17.235                -0.1182281      -0.3138112        0.0921221     -0.07299948                0               0                0               0
17.25                 -0.1375946      -0.3098057       0.08488138     -0.07873675                0               0                0               0
17.265                -0.1566975      -0.3043111       0.07732116     -0.08380135                0               0                0               0
17.28                 -0.1754254      -0.2973502       0.06950161     -0.08818153                0               0                0               0
17.295                -0.1936691      -0.2889544       0.06148231     -0.09187081                0               0                0               0
17.31                 -0.2113225      -0.2791628       0.05332171     -0.09486774                0               0                0               0
17.325                 -0.228283      -0.2680222       0.04507676     -0.09717552                0               0                0               0
17.34                 -0.2444523      -0.2555868        0.0368025     -0.09880185                0               0                0               0
17.355                -0.2597364      -0.2419175       0.02855187     -0.09975834                0               0                0               0
17.37                 -0.2740462      -0.2270818       0.02037544      -0.1000603                0               0                0               0
17.385                -0.2872985       -0.211153       0.01232109     -0.09972644                0               0                0               0
17.4                  -0.2994155      -0.1942102       0.00443403     -0.09877826                0               0                0               0
17.415                -0.3103257      -0.1763369     -0.003243324     -0.09723986                0               0                0               0
17.43                 -0.3199637      -0.1576217       -0.0106714     -0.09513761                0               0                0               0
17.445                -0.3282709      -0.1381569      -0.01781345     -0.09249977                0               0                0               0
17.46                 -0.3351948      -0.1180382      -0.02463548     -0.08935621                0               0                0               0
17.475                -0.3406905     -0.09736468      -0.03110625     -0.08573818                0               0                0               0
17.49                 -0.3447194     -0.07623747      -0.03719703     -0.08167813                0               0                0               0
17.505                -0.3472498     -0.05476034      -0.04288163     -0.07720948                0               0                0               0
17.52                 -0.3482572     -0.03303852      -0.04813628     -0.07236657                0               0                0               0
17.535                -0.3477238     -0.01117851       -0.0529394     -0.06718446                0               0                0               0
17.55                  -0.345639      0.01071205      -0.05727168     -0.06169903                0               0                0               0
17.565                -0.3419988      0.03252525      -0.06111583     -0.05594679                0               0                0               0
17.58                 -0.3368067      0.05415238      -0.06445672     -0.04996502                0               0                0               0
17.595                -0.3300725      0.07548543      -0.06728115     -0.04379175                0               0                0               0
17.61                 -0.3218135       0.0964167      -0.06957815     -0.03746574                0               0                0               0
17.625                -0.3120539       0.1168388      -0.07133877      -0.0310266                0               0                0               0
17.64                 -0.3008246       0.1366459      -0.07255634     -0.02451469                0               0                0               0
17.655                -0.2881641       0.1557336      -0.07322656     -0.01797133                0               0                0               0
17.67                 -0.2741174       0.1739991       -0.0733477     -0.01143853                0               0                0               0
17.685                -0.2587373       0.1913422      -0.07292074    -0.004959123                0               0                0               0
17.7                  -0.2420831       0.2076653      -0.07194964     0.001423419                0               0                0               0
17.715                -0.2242216       0.2228739      -0.07044156     0.007665097                0               0                0               0
17.73                 -0.2052268       0.2368773       -0.0684071      0.01372163                0               0                0               0
17.745                -0.1851797       0.2495892      -0.06586052      0.01954869                0               0                0               0
17.76                 -0.1641683        0.260928      -0.06281997      0.02510216                0               0                0               0
17.775                -0.1422874       0.2708178      -0.05930765      0.03033864                0               0                0               0
17.79                 -0.1196384       0.2791889      -0.05534996      0.03521576                0               0                0               0
17.805               -0.09632897       0.2859783       -0.0509776      0.03969268                0               0                0               0
17.82                -0.07247294       0.2911307      -0.04622559      0.04373062                0               0                0               0
17.835               -0.04818935       0.2945988      -0.04113322      0.04729344                0               0                0               0
17.85                -0.02360212       0.2963445      -0.03574385       0.0503481                0               0                0               0
17.865               0.001160381       0.2963391      -0.03010484      0.05286535                0               0                0               0
17.88                 0.02596659        0.294564      -0.02426715      0.05482021                0               0                0               0
17.895                0.05068216       0.2910114      -0.01828494      0.05619255                0               0                0               0
17.91                 0.07517125       0.2856843      -0.01221512      0.05696755                0               0                0               0
17.925                0.09929726       0.2785975     -0.006116772      0.05713622                0               0                0               0
17.94                  0.1229241       0.2697773    -5.049213e-05      0.05669571                0               0                0               0
17.955                 0.1459173       0.2592619       0.00592232      0.05564963                0               0                0               0