! TOUCHSTONE file generated by CST MICROWAVE STUDIO
! Date and time: Fri Mar 13 13:49:01 2026
! Project name: MS_SWL_no_block.cst
! Parameters = {H=1.27; L=60; Ls=0.5; T=0.035; W=4; Wgnd=40; rep=3}
! Header version: 2018
! Port assignment regex: !\s*Touchstone port\s*([0-9]+)\s*=\s*(CST MWS port|CST DS port)\s*([0-9]+|Zmin|Zmax)\s*\(\"(.*)\"\)(\s*mode\s*([0-9]+))?.*
! Touchstone port assignment:
! Touchstone port 1 = CST MWS port 1 ("")
! Touchstone port 2 = CST MWS port 2 ("")
! S-Parameters are not renormalized. Unphysical impedance of 0 will be written to the file.
# GHz S RI R 0
15                     0.5156145      -0.1171984       -0.1276153       0.1368696                0               0                0               0
15.015                 0.5108989       -0.137032       -0.1191119       0.1433741                0               0                0               0
15.03                  0.5053929      -0.1565017       -0.1104264       0.1493784                0               0                0               0
15.045                 0.4991167      -0.1755801       -0.1015801       0.1549072                0               0                0               0
15.06                  0.4920912      -0.1942402      -0.09258702       0.1599839                0               0                0               0
15.075                  0.484338      -0.2124551      -0.08345433       0.1646291                0               0                0               0
15.09                  0.4758798      -0.2301984      -0.07418329       0.1688596                0               0                0               0
15.105                 0.4667403      -0.2474443      -0.06477045       0.1726871                0               0                0               0
15.12                  0.4569446      -0.2641672      -0.05520901       0.1761173                0               0                0               0
15.135                 0.4465189      -0.2803428      -0.04549053       0.1791497                0               0                0               0
15.15                  0.4354906      -0.2959473       -0.0356059       0.1817772                0               0                0               0
15.165                 0.4238885      -0.3109583      -0.02554755       0.1839861                0               0                0               0
15.18                   0.411743      -0.3253547      -0.01531028       0.1857569                0               0                0               0
15.195                 0.3990849      -0.3391168      -0.00489296       0.1870647                0               0                0               0
15.21                  0.3859467      -0.3522265       0.00570048         0.18788                0               0                0               0
15.225                 0.3723614      -0.3646678       0.01646018       0.1881704                0               0                0               0
15.24                  0.3583629      -0.3764262       0.02736935       0.1879011                0               0                0               0
15.255                 0.3439853      -0.3874893       0.03840433       0.1870371                0               0                0               0
15.27                  0.3292634      -0.3978468       0.04953398        0.185544                0               0                0               0
15.285                  0.314232        -0.40749       0.06072022       0.1833898                0               0                0               0
15.3                   0.2989254      -0.4164127       0.07191834        0.180546                0               0                0               0
15.315                 0.2833781        -0.42461       0.08307756       0.1769892                0               0                0               0
15.33                  0.2676239       -0.432079       0.09414215       0.1727018                0               0                0               0
15.345                 0.2516962      -0.4388184        0.1050524       0.1676731                0               0                0               0
15.36                  0.2356272      -0.4448281        0.1157458       0.1618999                0               0                0               0
15.375                 0.2194494      -0.4501095        0.1261585       0.1553868                0               0                0               0
15.39                  0.2031932       -0.454665        0.1362268       0.1481463                0               0                0               0
15.405                 0.1868891       -0.458498        0.1458879        0.140199                0               0                0               0
15.42                  0.1705668      -0.4616124         0.155082       0.1315726                0               0                0               0
15.435                 0.1542552      -0.4640128        0.1637526       0.1223021                0               0                0               0
15.45                  0.1379825      -0.4657045        0.1718483        0.112428                0               0                0               0
15.465                 0.1217774      -0.4666929        0.1793229       0.1019961                0               0                0               0
15.48                   0.105667       -0.466984        0.1861366      0.09105621                0               0                0               0
15.495                0.08967994       -0.466584        0.1922558      0.07966067                0               0                0               0
15.51                  0.0738434      -0.4654997        0.1976534      0.06786355                0               0                0               0
15.525                0.05818629      -0.4637384        0.2023091       0.0557193                0               0                0               0
15.54                 0.04273714      -0.4613078        0.2062082      0.04328172                0               0                0               0
15.555                0.02752545      -0.4582168        0.2093416      0.03060301                0               0                0               0
15.57                 0.01258031      -0.4544751        0.2117051      0.01773295                0               0                0               0
15.585               -0.00206674      -0.4500937        0.2132982     0.004718324                0               0                0               0
15.6                 -0.01638493      -0.4450853        0.2141233    -0.008397476                0               0                0               0
15.615               -0.03034243      -0.4394642        0.2141847      -0.0215746                0               0                0               0
15.63                 -0.0439072      -0.4332469        0.2134877     -0.03477669                0               0                0               0
15.645               -0.05704658      -0.4264524        0.2120374     -0.04797056                0               0                0               0
15.66                -0.06972788       -0.419102         0.209838     -0.06112568                0               0                0               0
15.675               -0.08191942        -0.41122        0.2068922     -0.07421356                0               0                0               0
15.69                -0.09358934      -0.4028334        0.2032005     -0.08720681                0               0                0               0
15.705                -0.1047071      -0.3939727        0.1987609      -0.1000783                0               0                0               0
15.72                 -0.1152433      -0.3846711         0.193569      -0.1128001                0               0                0               0
15.735                -0.1251712      -0.3749652        0.1876178      -0.1253423                0               0                0               0
15.75                 -0.1344655      -0.3648945        0.1808985      -0.1376724                0               0                0               0
15.765                -0.1431042      -0.3545015        0.1734006      -0.1497541                0               0                0               0
15.78                 -0.1510686      -0.3438309        0.1651132      -0.1615464                0               0                0               0
15.795                -0.1583433      -0.3329305        0.1560257      -0.1730033                0               0                0               0
15.81                 -0.1649172      -0.3218493         0.146129      -0.1840732                0               0                0               0
15.825                -0.1707837      -0.3106381        0.1354169      -0.1946988                0               0                0               0
15.84                 -0.1759404       -0.299349        0.1238872      -0.2048171                0               0                0               0
15.855                -0.1803902      -0.2880339        0.1115429      -0.2143597                0               0                0               0
15.87                  -0.184141      -0.2767452       0.09839411      -0.2232534                0               0                0               0
15.885                -0.1872053      -0.2655343       0.08445857      -0.2314211                0               0                0               0
15.9                   -0.189601      -0.2544513       0.06976268       -0.238783                0               0                0               0
15.915                -0.1913508      -0.2435441       0.05434269      -0.2452575                0               0                0               0
15.93                 -0.1924821      -0.2328582        0.0382455       -0.250763                0               0                0               0
15.945                -0.1930265       -0.222436       0.02152863      -0.2552191                0               0                0               0
15.96                 -0.1930195      -0.2123159      0.004260197      -0.2585488                0               0                0               0
15.975                -0.1925002      -0.2025324      -0.01348042      -0.2606796                0               0                0               0
15.99                 -0.1915109      -0.1931152      -0.03160436      -0.2615455                0               0                0               0
16.005                -0.1900958       -0.184089       -0.0500124      -0.2610886                0               0                0               0
16.02                 -0.1883011      -0.1754735      -0.06859707      -0.2592601                0               0                0               0
16.035                 -0.186174      -0.1672827      -0.08724374      -0.2560222                0               0                0               0
16.05                  -0.183762      -0.1595254       -0.1058317      -0.2513489                0               0                0               0
16.065                -0.1811123      -0.1522046       -0.1242359      -0.2452268                0               0                0               0
16.08                 -0.1782711      -0.1453183       -0.1423288      -0.2376556                0               0                0               0
16.095                 -0.175283       -0.138859       -0.1599817      -0.2286488                0               0                0               0
16.11                 -0.1721899      -0.1328147       -0.1770669      -0.2182334                0               0                0               0
16.125                -0.1690309      -0.1271687       -0.1934595      -0.2064496                0               0                0               0
16.14                  -0.165842      -0.1219004       -0.2090387      -0.1933506                0               0                0               0
16.155                -0.1626547      -0.1169857       -0.2236895      -0.1790016                0               0                0               0
16.17                 -0.1594965      -0.1123975       -0.2373045      -0.1634788                0               0                0               0
16.185                -0.1563901      -0.1081067       -0.2497843      -0.1468686                0               0                0               0
16.2                  -0.1533535      -0.1040823       -0.2610391      -0.1292659                0               0                0               0
16.215                -0.1503997      -0.1002927       -0.2709892      -0.1107732                0               0                0               0
16.23                 -0.1475367     -0.09670593       -0.2795655     -0.09149842                0               0                0               0
16.245                -0.1447674     -0.09329059       -0.2867099      -0.0715545                0               0                0               0
16.26                 -0.1420902     -0.09001653        -0.292375      -0.0510572                0               0                0               0
16.275                 -0.139499      -0.0868552       -0.2965246     -0.03012401                0               0                0               0
16.29                 -0.1369833     -0.08378074       -0.2991324    -0.008873413                0               0                0               0
16.305                -0.1345292     -0.08077015       -0.3001825      0.01257698                0               0                0               0
16.32                 -0.1321193     -0.07780384       -0.2996679      0.03411069                0               0                0               0
16.335                -0.1297336     -0.07486621       -0.2975905      0.05561306                0               0                0               0
16.35                 -0.1273502     -0.07194581       -0.2939598      0.07697245                0               0                0               0
16.365                -0.1249456     -0.06903569       -0.2887926      0.09807993                0               0                0               0
16.38                 -0.1224955      -0.0661335       -0.2821121       0.1188295                0               0                0               0
16.395                -0.1199758     -0.06324159       -0.2739471       0.1391186                0               0                0               0
16.41                 -0.1173628     -0.06036692       -0.2643321       0.1588476                0               0                0               0
16.425                -0.1146342     -0.05752103       -0.2533058       0.1779199                0               0                0               0
16.44                 -0.1117698     -0.05471976       -0.2409117       0.1962417                0               0                0               0
16.455                 -0.108752      -0.0519829       -0.2271981       0.2137215                0               0                0               0
16.47                 -0.1055663      -0.0493338       -0.2122172       0.2302699                0               0                0               0
16.485                -0.1022022       -0.046799       -0.1960259       0.2457997                0               0                0               0
16.5                 -0.09865316     -0.04440755       -0.1786861       0.2602257                0               0                0               0
16.515               -0.09491748     -0.04219047       -0.1602647       0.2734645                0               0                0               0
16.53                -0.09099828     -0.04017999        -0.140834       0.2854347                0               0                0               0
16.545               -0.08690384     -0.03840905       -0.1204727       0.2960573                0               0                0               0
16.56                 -0.0826477     -0.03691024      -0.09926553       0.3052563                0               0                0               0
16.575               -0.07824863     -0.03571532      -0.07730457       0.3129588                0               0                0               0
16.59                -0.07373066      -0.0348543      -0.05468869       0.3190961                0               0                0               0
16.605               -0.06912276     -0.03435483      -0.03152414       0.3236048                0               0                0               0
16.62                -0.06445859     -0.03424128     -0.007925619       0.3264272                0               0                0               0
16.635               -0.05977615     -0.03453423         0.015986       0.3275131                0               0                0               0
16.65                -0.05511721      -0.0352497       0.04008231       0.3268205                0               0                0               0
16.665               -0.05052676     -0.03639869       0.06422786        0.324317                0               0                0               0
16.68                -0.04605237     -0.03798658       0.08828196       0.3199809                0               0                0               0
16.695               -0.04174344     -0.04001278        0.1120984       0.3138023                0               0                0               0
16.71                -0.03765037     -0.04247044        0.1355278       0.3057841                0               0                0               0
16.725               -0.03382374     -0.04534618        0.1584176       0.2959428                0               0                0               0
16.74                -0.03031354     -0.04862006        0.1806154       0.2843092                0               0                0               0
16.755               -0.02716811     -0.05226563        0.2019685       0.2709291                0               0                0               0
16.77                -0.02443335     -0.05624997        0.2223272       0.2558629                0               0                0               0
16.785               -0.02215189      -0.0605341        0.2415462       0.2391861                0               0                0               0
16.8                 -0.02036218      -0.0650733         0.259486       0.2209889                0               0                0               0
16.815               -0.01909779     -0.06981762        0.2760155       0.2013752                0               0                0               0
16.83                -0.01838657     -0.07471255        0.2910128       0.1804621                0               0                0               0
16.845               -0.01825019     -0.07969965        0.3043675       0.1583787                0               0                0               0
16.86                -0.01870352     -0.08471743        0.3159816       0.1352647                0               0                0               0
16.875               -0.01975416      -0.0897022        0.3257712        0.111269                0               0                0               0
16.89                -0.02140228     -0.09458897         0.333667      0.08654769                0               0                0               0
16.905               -0.02364035     -0.09931245        0.3396153       0.0612625                0               0                0               0
16.92                -0.02645313      -0.1038081        0.3435782      0.03557884                0               0                0               0
16.935               -0.02981771      -0.1080129        0.3455339     0.009663853                0               0                0               0
16.95                -0.03370395      -0.1118668        0.3454768     -0.01631547                0               0                0               0
16.965               -0.03807458      -0.1153129        0.3434165      -0.0421941                0               0                0               0
16.98                -0.04288591      -0.1182992        0.3393775     -0.06781065                0               0                0               0
16.995               -0.04808841      -0.1207787        0.3333986     -0.09300899                0               0                0               0
17.01                -0.05362735      -0.1227104        0.3255312      -0.1176395                0               0                0               0
17.025               -0.05944372      -0.1240601        0.3158386      -0.1415602                0               0                0               0
17.04                -0.06547495      -0.1248004        0.3043945       -0.164638                0               0                0               0
17.055               -0.07165616      -0.1249113        0.2912814      -0.1867487                0               0                0               0
17.07                -0.07792085      -0.1243807        0.2765899      -0.2077782                0               0                0               0
17.085               -0.08420208       -0.123204        0.2604163       -0.227622                0               0                0               0
17.1                 -0.09043329       -0.121384        0.2428622      -0.2461856                0               0                0               0
17.115               -0.09654954      -0.1189311        0.2240329      -0.2633841                0               0                0               0
17.13                 -0.1024881      -0.1158628        0.2040363      -0.2791418                0               0                0               0
17.145                -0.1081894      -0.1122031        0.1829822      -0.2933919                0               0                0               0
17.16                  -0.113598      -0.1079818        0.1609817      -0.3060754                0               0                0               0
17.175                 -0.118663      -0.1032344        0.1381461       -0.317141                0               0                0               0
17.19                 -0.1233386     -0.09800038        0.1145875      -0.3265441                0               0                0               0
17.205                -0.1275845     -0.09232344       0.09041791      -0.3342462                0               0                0               0
17.22                 -0.1313663     -0.08625005       0.06574946      -0.3402143                0               0                0               0
17.235                -0.1346556     -0.07982855       0.04069483      -0.3444206                0               0                0               0
17.25                 -0.1374299     -0.07310853       0.01536747      -0.3468423                0               0                0               0
17.265                -0.1396725     -0.06613999      -0.01011829      -0.3474611                0               0                0               0
17.28                 -0.1413725     -0.05897237       -0.0356466      -0.3462632                0               0                0               0
17.295                 -0.142524     -0.05165404       -0.0610998        -0.34324                0               0                0               0
17.31                  -0.143126     -0.04423162      -0.08635779      -0.3383878                0               0                0               0
17.325                -0.1431818     -0.03674934        -0.111298      -0.3317091                0               0                0               0
17.34                 -0.1426981     -0.02924891       -0.1357954      -0.3232126                0               0                0               0
17.355                 -0.141685     -0.02176889       -0.1597219      -0.3129142                0               0                0               0
17.37                 -0.1401546     -0.01434486       -0.1829471      -0.3008384                0               0                0               0
17.385                -0.1381208    -0.007009011       -0.2053386      -0.2870182                0               0                0               0
17.4                  -0.1355987    0.0002093763        -0.226762      -0.2714973                0               0                0               0
17.415                -0.1326038     0.007284073       -0.2470828      -0.2543299                0               0                0               0
17.43                 -0.1291516      0.01419154       -0.2661666      -0.2355822                0               0                0               0
17.445                 -0.125257      0.02091029       -0.2838804      -0.2153326                0               0                0               0
17.46                 -0.1209343      0.02742092       -0.3000945      -0.1936727                0               0                0               0
17.475                -0.1161966      0.03370522       -0.3146837      -0.1707072                0               0                0               0
17.49                  -0.111056      0.03974579        -0.327529      -0.1465542                0               0                0               0
17.505                -0.1055235      0.04552555       -0.3385196      -0.1213449                0               0                0               0
17.52                -0.09960866      0.05102723       -0.3475544     -0.09522303                0               0                0               0
17.535               -0.09332066      0.05623282       -0.3545442     -0.06834428                0               0                0               0
17.55                -0.08666794      0.06112318       -0.3594127      -0.0408749                0               0                0               0
17.565               -0.07965896      0.06567771       -0.3620986     -0.01299085                0               0                0               0
17.58                -0.07230257       0.0698741        -0.362557      0.01512427                0               0                0               0
17.595               -0.06460854      0.07368825       -0.3607602      0.04328077                0               0                0               0
17.61                -0.05658824      0.07709412       -0.3566987      0.07128485                0               0                0               0
17.625               -0.04825517      0.08006392       -0.3503823      0.09894077                0               0                0               0
17.64                -0.03962561      0.08256827       -0.3418397       0.1260534                0               0                0               0
17.655               -0.03071905      0.08457664       -0.3311192       0.1524299                0               0                0               0
17.67                -0.02155884      0.08605776       -0.3182873       0.1778826                0               0                0               0
17.685               -0.01217259      0.08698016       -0.3034297       0.2022307                0               0                0               0
17.7                -0.002592364      0.08731294       -0.2866488       0.2253026                0               0                0               0
17.715               0.007144928       0.0870264       -0.2680629        0.246938                0               0                0               0
17.73                 0.01699754      0.08609296       -0.2478056       0.2669891                0               0                0               0
17.745                0.02691893       0.0844879       -0.2260224       0.2853228                0               0                0               0
17.76                   0.036858      0.08219027       -0.2028709       0.3018209                0               0                0               0
17.775                0.04675934      0.07918371       -0.1785167       0.3163822                0               0                0               0
17.79                 0.05656386       0.0754572       -0.1531331       0.3289224                0               0                0               0
17.805                0.06620935       0.0710059       -0.1268978       0.3393743                0               0                0               0
17.82                 0.07563125      0.06583163      -0.09999158       0.3476883                0               0                0               0
17.835                0.08476356      0.05994352      -0.07259623       0.3538317                0               0                0               0
17.85                 0.09353984      0.05335834       -0.0448924       0.3577884                0               0                0               0
17.865                 0.1018942      0.04610072      -0.01705837       0.3595584                0               0                0               0
17.88                  0.1097624      0.03820332       0.01073177       0.3591562                0               0                0               0
17.895                 0.1170833      0.02970661       0.03830911       0.3566104                0               0                0               0
17.91                  0.1237993      0.02065872       0.06551132       0.3519619                0               0                0               0
17.925                 0.1298583      0.01111491       0.09218313       0.3452635                0               0                0               0
17.94                   0.135214     0.001136985        0.1181769       0.3365777                0               0                0               0
17.955                 0.1398275    -0.009207455        0.1433528       0.3259763                0               0                0               0