! TOUCHSTONE file generated by CST MICROWAVE STUDIO
! Date and time: Fri Mar 13 14:18:22 2026
! Project name: MS_SWL_ground_strip.cst
! Parameters = {H=1.27; L=60; Ls=0.6; T=0.035; W=4; Wgnd=40; dx=-1.2; p=1.2; rep=2}
! Header version: 2018
! Port assignment regex: !\s*Touchstone port\s*([0-9]+)\s*=\s*(CST MWS port|CST DS port)\s*([0-9]+|Zmin|Zmax)\s*\(\"(.*)\"\)(\s*mode\s*([0-9]+))?.*
! Touchstone port assignment:
! Touchstone port 1 = CST MWS port 1 ("")
! Touchstone port 2 = CST MWS port 2 ("")
! S-Parameters are not renormalized. Unphysical impedance of 0 will be written to the file.
# GHz S RI R 0
15                     0.4855808       0.1290993       -0.1637231     -0.01233778                0               0                0               0
15.015                 0.4919892       0.1096404       -0.1641264    -0.002332679                0               0                0               0
15.03                   0.497618       0.0900911       -0.1638807     0.007667712                0               0                0               0
15.045                 0.5024759      0.07046733       -0.1629882      0.01761431                0               0                0               0
15.06                  0.5065687       0.0507842       -0.1614558      0.02745819                0               0                0               0
15.075                 0.5098998      0.03105665       -0.1592957      0.03715122                0               0                0               0
15.09                    0.51247      0.01130002       -0.1565246      0.04664694                0               0                0               0
15.105                 0.5142781    -0.008469254        -0.153164      0.05590094                0               0                0               0
15.12                  0.5153208     -0.02823319       -0.1492394      0.06487172                0               0                0               0
15.135                 0.5155936     -0.04797176       -0.1447805      0.07352095                0               0                0               0
15.15                  0.5150912     -0.06766256       -0.1398198      0.08181426                0               0                0               0
15.165                 0.5138078     -0.08728059       -0.1343931      0.08972142                0               0                0               0
15.18                  0.5117382      -0.1067981       -0.1285377       0.0972166                0               0                0               0
15.195                 0.5088778      -0.1261846       -0.1222928       0.1042787                0               0                0               0
15.21                  0.5052239      -0.1454068       -0.1156981       0.1108914                0               0                0               0
15.225                 0.5007757      -0.1644294       -0.1087933        0.117043                0               0                0               0
15.24                  0.4955351      -0.1832144       -0.1016176       0.1227264                0               0                0               0
15.255                 0.4895072      -0.2017225      -0.09420913       0.1279386                0               0                0               0
15.27                  0.4827003      -0.2199131      -0.08660378        0.132681                0               0                0               0
15.285                  0.475127      -0.2377448      -0.07883528       0.1369579                0               0                0               0
15.3                    0.466803      -0.2551762      -0.07093462       0.1407772                0               0                0               0
15.315                  0.457749      -0.2721666      -0.06292981       0.1441488                0               0                0               0
15.33                  0.4479891      -0.2886761      -0.05484523       0.1470847                0               0                0               0
15.345                 0.4375513      -0.3046668      -0.04670199       0.1495979                0               0                0               0
15.36                  0.4264674      -0.3201031      -0.03851768       0.1517022                0               0                0               0
15.375                 0.4147722      -0.3349525      -0.03030653        0.153411                0               0                0               0
15.39                  0.4025038      -0.3491854      -0.02207951       0.1547373                0               0                0               0
15.405                 0.3897019      -0.3627764      -0.01384466       0.1556928                0               0                0               0
15.42                  0.3764088      -0.3757039     -0.005607602       0.1562874                0               0                0               0
15.435                 0.3626673      -0.3879505      0.002628268        0.156529                0               0                0               0
15.45                   0.348521       -0.399503       0.01086093        0.156423                0               0                0               0
15.465                 0.3340131      -0.4103529       0.01908959       0.1559722                0               0                0               0
15.48                  0.3191866      -0.4204954       0.02731366       0.1551763                0               0                0               0
15.495                 0.3040827      -0.4299298       0.03553249       0.1540326                0               0                0               0
15.51                  0.2887411      -0.4386591       0.04374458       0.1525352                0               0                0               0
15.525                 0.2731988      -0.4466892       0.05194706       0.1506758                0               0                0               0
15.54                  0.2574903      -0.4540288       0.06013516        0.148444                0               0                0               0
15.555                  0.241647       -0.460689       0.06830172        0.145827                0               0                0               0
15.57                  0.2256976      -0.4666819        0.0764369        0.142811                0               0                0               0
15.585                 0.2096663      -0.4720212       0.08452751       0.1393807                0               0                0               0
15.6                   0.1935754      -0.4767203       0.09255711       0.1355208                0               0                0               0
15.615                  0.177443      -0.4807927        0.1005057       0.1312159                0               0                0               0
15.63                   0.161285      -0.4842509        0.1083497       0.1264513                0               0                0               0
15.645                 0.1451142      -0.4871063         0.116062       0.1212139                0               0                0               0
15.66                  0.1289413      -0.4893679         0.123612       0.1154924                0               0                0               0
15.675                 0.1127756      -0.4910431        0.1309662       0.1092781                0               0                0               0
15.69                 0.09662451      -0.4921367        0.1380879       0.1025654                0               0                0               0
15.705                0.08049633      -0.4926505        0.1449383      0.09535199                0               0                0               0
15.72                 0.06439759       -0.492584        0.1514764      0.08763976                0               0                0               0
15.735                0.04833687      -0.4919341          0.15766      0.07943479                0               0                0               0
15.75                 0.03232329      -0.4906947        0.1634459      0.07074755                0               0                0               0
15.765                0.01636858       -0.488858        0.1687905      0.06159322                0               0                0               0
15.78               0.0004860001      -0.4864139        0.1736509      0.05199162                0               0                0               0
15.795               -0.01530751      -0.4833513        0.1779847      0.04196729                0               0                0               0
15.81                -0.03099247      -0.4796578        0.1817514      0.03154926                0               0                0               0
15.825                -0.0465453      -0.4753212        0.1849123      0.02077092                0               0                0               0
15.84                -0.06193875      -0.4703293        0.1874315     0.009669713                0               0                0               0
15.855               -0.07714252      -0.4646712        0.1892759    -0.001713178                0               0                0               0
15.87                -0.09212156      -0.4583376        0.1904161     -0.01333324                0               0                0               0
15.885                -0.1068376      -0.4513221        0.1908262     -0.02514306                0               0                0               0
15.9                  -0.1212495       -0.443621        0.1904845     -0.03709278                0               0                0               0
15.915                -0.1353125      -0.4352346        0.1893734     -0.04913057                0               0                0               0
15.93                   -0.14898      -0.4261676        0.1874796     -0.06120315                0               0                0               0
15.945                 -0.162203      -0.4164295        0.1847942     -0.07325625                0               0                0               0
15.96                  -0.174932       -0.406035        0.1813127     -0.08523482                0               0                0               0
15.975                -0.1871167      -0.3950042        0.1770346     -0.09708399                0               0                0               0
15.99                 -0.1987073      -0.3833631        0.1719635      -0.1087491                0               0                0               0
16.005                -0.2096551      -0.3711434        0.1661072      -0.1201758                0               0                0               0
16.02                  -0.219913      -0.3583826        0.1594769      -0.1313108                0               0                0               0
16.035                -0.2294373      -0.3451233        0.1520873       -0.142102                0               0                0               0
16.05                 -0.2381876      -0.3314135        0.1439567      -0.1524984                0               0                0               0
16.065                -0.2461273      -0.3173062         0.135106      -0.1624504                0               0                0               0
16.08                 -0.2532253      -0.3028583        0.1255591      -0.1719099                0               0                0               0
16.095                -0.2594558      -0.2881302        0.1153423      -0.1808306                0               0                0               0
16.11                 -0.2647987      -0.2731855        0.1044848      -0.1891671                0               0                0               0
16.125                -0.2692404      -0.2580896        0.0930175      -0.1968761                0               0                0               0
16.14                 -0.2727739      -0.2429095       0.08097412      -0.2039155                0               0                0               0
16.155                -0.2753984      -0.2277123       0.06839012      -0.2102445                0               0                0               0
16.17                 -0.2771204      -0.2125649       0.05530362      -0.2158237                0               0                0               0
16.185                -0.2779526      -0.1975331       0.04175452      -0.2206153                0               0                0               0
16.2                  -0.2779138      -0.1826804        0.0277856      -0.2245824                0               0                0               0
16.215                -0.2770293      -0.1680675       0.01344161      -0.2276897                0               0                0               0
16.23                 -0.2753292      -0.1537517     -0.001229767      -0.2299034                0               0                0               0
16.245                -0.2728489      -0.1397863      -0.01617797      -0.2311913                0               0                0               0
16.26                 -0.2696281      -0.1262198      -0.03134977      -0.2315226                0               0                0               0
16.275                -0.2657099      -0.1130957      -0.04668847      -0.2308691                0               0                0               0
16.29                 -0.2611403      -0.1004521       -0.0621344      -0.2292046                0               0                0               0
16.305                -0.2559676     -0.08832171      -0.07762422      -0.2265056                0               0                0               0
16.32                  -0.250241     -0.07673138      -0.09309123      -0.2227519                0               0                0               0
16.335                -0.2440107      -0.0657026       -0.1084653      -0.2179269                0               0                0               0
16.35                 -0.2373264     -0.05525126       -0.1236728      -0.2120181                0               0                0               0
16.365                -0.2302371     -0.04538817        -0.138637      -0.2050179                0               0                0               0
16.38                 -0.2227902     -0.03611941       -0.1532779      -0.1969237                0               0                0               0
16.395                 -0.215031      -0.0274465       -0.1675129      -0.1877389                0               0                0               0
16.41                 -0.2070023     -0.01936726        -0.181257      -0.1774733                0               0                0               0
16.425                -0.1987441     -0.01187608       -0.1944235      -0.1661439                0               0                0               0
16.44                  -0.190293    -0.004964746       -0.2069245      -0.1537747                0               0                0               0
16.455                -0.1816823     0.001377115       -0.2186715      -0.1403979                0               0                0               0
16.47                 -0.1729421     0.007161096       -0.2295765      -0.1260539                0               0                0               0
16.485                -0.1640988      0.01239996       -0.2395524      -0.1107916                0               0                0               0
16.5                  -0.1551755      0.01710636       -0.2485147     -0.09466854                0               0                0               0
16.515                -0.1461927      0.02129281       -0.2563813     -0.07775108                0               0                0               0
16.53                 -0.1371676      0.02497099       -0.2630748     -0.06011419                0               0                0               0
16.545                -0.1281155      0.02815127       -0.2685224     -0.04184122                0               0                0               0
16.56                 -0.1190497      0.03084249       -0.2726579     -0.02302368                0               0                0               0
16.575                -0.1099821      0.03305162        -0.275422    -0.003760689                0               0                0               0
16.59                 -0.1009234      0.03478366       -0.2767636      0.01584156                0               0                0               0
16.605               -0.09188458      0.03604145       -0.2766406      0.03567073                0               0                0               0
16.62                -0.08287624      0.03682592       -0.2750205      0.05560905                0               0                0               0
16.635                  -0.07391      0.03713591       -0.2718817      0.07553434                0               0                0               0
16.65                -0.06499853      0.03696865       -0.2672134      0.09532122                0               0                0               0
16.665               -0.05615618      0.03631992       -0.2610167        0.114842                0               0                0               0
16.68                -0.04739934      0.03518436       -0.2533045        0.133968                0               0                0               0
16.695               -0.03874668      0.03355605       -0.2441017       0.1525713                0               0                0               0
16.71                -0.03021944      0.03142886       -0.2334455       0.1705254                0               0                0               0
16.725                -0.0218416        0.028797       -0.2213851       0.1877067                0               0                0               0
16.74                -0.01363994      0.02565559       -0.2079812        0.203996                0               0                0               0
16.755              -0.005643956      0.02200114       -0.1933061       0.2192795                0               0                0               0
16.77                 0.00211413      0.01783215       -0.1774421       0.2334504                0               0                0               0
16.785               0.009599698      0.01314958        -0.160482       0.2464096                0               0                0               0
16.8                  0.01677594     0.007957362       -0.1425274       0.2580665                0               0                0               0
16.815                0.02360424     0.002262862       -0.1236877       0.2683408                0               0                0               0
16.83                 0.03004458    -0.003922783       -0.1040797       0.2771622                0               0                0               0
16.845                0.03605607     -0.01058432       -0.0838251       0.2844719                0               0                0               0
16.86                 0.04159744     -0.01770212      -0.06305084       0.2902226                0               0                0               0
16.875                0.04662761     -0.02525206      -0.04188696       0.2943788                0               0                0               0
16.89                 0.05110633     -0.03320538      -0.02046539        0.296917                0               0                0               0
16.905                0.05499469     -0.04152872      0.001081498       0.2978261                0               0                0               0
16.92                  0.0582558     -0.05018422       0.02262124       0.2971068                0               0                0               0
16.935                0.06085535     -0.05912965       0.04402394       0.2947715                0               0                0               0
16.95                 0.06276211     -0.06831868       0.06516205       0.2908436                0               0                0               0
16.965                0.06394855      -0.0777012       0.08591228       0.2853574                0               0                0               0
16.98                  0.0643912      -0.0872237        0.1061559       0.2783574                0               0                0               0
16.995                0.06407117     -0.09682973        0.1257804       0.2698969                0               0                0               0
17.01                 0.06297436      -0.1064604        0.1446795       0.2600381                0               0                0               0
17.025                 0.0610919      -0.1160548        0.1627541       0.2488505                0               0                0               0
17.04                 0.05842028      -0.1255508        0.1799128       0.2364105                0               0                0               0
17.055                0.05496149      -0.1348853         0.196072          0.2228                0               0                0               0
17.07                 0.05072308      -0.1439951        0.2111563       0.2081057                0               0                0               0
17.085                0.04571812      -0.1528174        0.2250989       0.1924184                0               0                0               0
17.1                  0.03996535      -0.1612901        0.2378412       0.1758317                0               0                0               0
17.115                0.03348867      -0.1693528        0.2493327       0.1584414                0               0                0               0
17.13                 0.02631722       -0.176947        0.2595309       0.1403446                0               0                0               0
17.145                0.01848506      -0.1840166        0.2684014       0.1216391                0               0                0               0
17.16                 0.01003092      -0.1905084        0.2759168       0.1024228                0               0                0               0
17.175              0.0009977478      -0.1963725        0.2820572       0.0827931                0               0                0               0
17.19               -0.008567686      -0.2015624        0.2868089      0.06284635                0               0                0               0
17.205               -0.01861475      -0.2060358        0.2901649      0.04267763                0               0                0               0
17.22                -0.02908993      -0.2097543        0.2921234      0.02238039                0               0                0               0
17.235               -0.03993688      -0.2126838        0.2926886     0.002046254                0               0                0               0
17.25                -0.05109697      -0.2147947        0.2918693     -0.01823509                0               0                0               0
17.265               -0.06250945       -0.216062        0.2896789       -0.038376                0               0                0               0
17.28                -0.07411207      -0.2164652        0.2861353     -0.05829085                0               0                0               0
17.295               -0.08584139      -0.2159884        0.2812603     -0.07789607                0               0                0               0
17.31                -0.09763328      -0.2146204        0.2750795        -0.09711                0               0                0               0
17.325                -0.1094228      -0.2123546        0.2676225      -0.1158529                0               0                0               0
17.34                 -0.1211449      -0.2091886        0.2589222      -0.1340469                0               0                0               0
17.355                -0.1327346       -0.205125        0.2490151      -0.1516157                0               0                0               0
17.37                 -0.1441273      -0.2001704        0.2379415      -0.1684849                0               0                0               0
17.385                -0.1552589      -0.1943356        0.2257452      -0.1845817                0               0                0               0
17.4                  -0.1660662       -0.187636        0.2124739      -0.1998351                0               0                0               0
17.415                -0.1764868      -0.1800907        0.1981791      -0.2141759                0               0                0               0
17.43                 -0.1864597      -0.1717232        0.1829167      -0.2275368                0               0                0               0
17.445                -0.1959253      -0.1625606        0.1667466      -0.2398527                0               0                0               0
17.46                 -0.2048254      -0.1526343        0.1497332      -0.2510609                0               0                0               0
17.475                 -0.213104      -0.1419791        0.1319455      -0.2611015                0               0                0               0
17.49                 -0.2207065      -0.1306338         0.113457      -0.2699175                0               0                0               0
17.505                 -0.227581      -0.1186407       0.09434623       -0.277456                0               0                0               0
17.52                 -0.2336777      -0.1060458       0.07469615      -0.2836676                0               0                0               0
17.535                -0.2389495     -0.09289857        0.0545948      -0.2885079                0               0                0               0
17.55                 -0.2433521       -0.079252       0.03413445      -0.2919373                0               0                0               0
17.565                -0.2468443     -0.06516238       0.01341184      -0.2939224                0               0                0               0
17.58                 -0.2493882     -0.05068899     -0.007472201      -0.2944357                0               0                0               0
17.595                -0.2509493     -0.03589467      -0.02841318      -0.2934569                0               0                0               0
17.61                 -0.2514972     -0.02084472      -0.04930339       -0.290973                0               0                0               0
17.625                -0.2510055     -0.00560743      -0.07003248      -0.2869791                0               0                0               0
17.64                  -0.249452      0.00974646       -0.0904881      -0.2814786                0               0                0               0
17.655                -0.2468194      0.02514382       -0.1105566      -0.2744842                0               0                0               0
17.67                 -0.2430951      0.04050963       -0.1301236      -0.2660172                0               0                0               0
17.685                -0.2382717      0.05576717       -0.1490756      -0.2561089                0               0                0               0
17.7                   -0.232347      0.07083821       -0.1672999         -0.2448                0               0                0               0
17.715                -0.2253246      0.08564373       -0.1846861       -0.232141                0               0                0               0
17.73                 -0.2172136       0.1001041       -0.2011271      -0.2181918                0               0                0               0
17.745                -0.2080291       0.1141394       -0.2165196      -0.2030222                0               0                0               0
17.76                 -0.1977921         0.12767       -0.2307657      -0.1867108                0               0                0               0
17.775                -0.1865296       0.1406174       -0.2437735      -0.1693454                0               0                0               0
17.79                 -0.1742749       0.1529039       -0.2554578      -0.1510219                0               0                0               0
17.805                -0.1610668        0.164454       -0.2657414       -0.131844                0               0                0               0
17.82                 -0.1469506       0.1751942       -0.2745557      -0.1119223                0               0                0               0
17.835                -0.1319771       0.1850538       -0.2818413     -0.09137384                0               0                0               0
17.85                  -0.116203       0.1939657       -0.2875489     -0.07032091                0               0                0               0
17.865                -0.0996901       0.2018661       -0.2916397     -0.04889022                0               0                0               0
17.88                -0.08250556        0.208696       -0.2940858     -0.02721194                0               0                0               0
17.895               -0.06472156       0.2144006       -0.2948704    -0.005418524                0               0                0               0
17.91                -0.04641443       0.2189305       -0.2939886      0.01635631                0               0                0               0
17.925               -0.02766479       0.2222418       -0.2914467      0.03797863                0               0                0               0
17.94               -0.008556921       0.2242964       -0.2872627      0.05931539                0               0                0               0
17.955                0.01082174       0.2250624       -0.2814661      0.08023562                0               0                0               0